# vtk DataFile Version 2.0
track0
ASCII
DATASET POLYDATA
POINTS 24819 float
-1.001 1e-07 0.4533613
-0.9872983 -0.01564142 0.4533613
-0.9736013 -0.03128703 0.4533613
-0.9599088 -0.04693652 0.4533613
-0.9462204 -0.06258971 0.4533613
-0.9325666 -0.0782115 0.4533613
-0.8981225 -0.1180716 0.4533613
-0.863828 -0.1580606 0.4533613
-0.82987 -0.1983356 0.4533613
-0.7953733 -0.2381503 0.4533613
-0.7603454 -0.2771674 0.4533613
-0.7586268 -0.2790346 0.4533613
-0.7569077 -0.2809013 0.4533613
-0.7551881 -0.2827676 0.4533613
-0.7534674 -0.2846329 0.4533613
-0.7517385 -0.2865031 0.4533613
-0.7113254 -0.3301242 0.4533613
-0.6701392 -0.3730162 0.4533613
-0.6283234 -0.4152947 0.4533613
-0.5852229 -0.4562627 0.4533613
-0.5367948 -0.4987716 0.4533613
-0.5354563 -0.4998629 0.4533613
-0.5341169 -0.5009531 0.4533613
-0.5327766 -0.5020423 0.4533613
-0.5314352 -0.5031299 0.4533613
-0.5300777 -0.5042278 0.4533613
-0.4867751 -0.5391594 0.4533613
-0.4416373 -0.5716849 0.4533613
-0.3949288 -0.6019116 0.4533613
-0.3468052 -0.6298301 0.4533613
-0.3135278 -0.6472044 0.4533613
-0.2911872 -0.658145 0.4533613
-0.2686784 -0.6687354 0.4533613
-0.2459515 -0.6788492 0.4533613
-0.2230277 -0.6885084 0.4533613
-0.2018208 -0.6969666 0.4533613
-0.1875355 -0.7023182 0.4533613
-0.1731636 -0.7074324 0.4533613
-0.1587182 -0.7123351 0.4533613
-0.1442046 -0.7170323 0.4533613
-0.1225223 -0.7237126 0.4533613
-0.116047 -0.7255578 0.4533613
-0.1095591 -0.7273584 0.4533613
-0.103059 -0.7291142 0.4533613
-0.09654677 -0.7308245 0.4533613
-0.09014601 -0.7324586 0.4533613
-0.04544031 -0.7436743 0.4533613
-0.0003568314 -0.7532593 0.4533613
0.04506015 -0.7611135 0.4533613
0.09074107 -0.7672491 0.4533613
0.1333376 -0.7714748 0.4533613
0.1781011 -0.7744369 0.4533613
0.2229302 -0.7761422 0.4533613
0.2677916 -0.7761787 0.4533613
0.3126416 -0.7751663 0.4533613
0.3571152 -0.7731077 0.4533613
0.4019897 -0.7697583 0.4533613
0.4468229 -0.7658951 0.4533613
0.4915826 -0.7612564 0.4533613
0.5362465 -0.7557723 0.4533613
0.5814605 -0.749269 0.4533613
0.605159 -0.7452453 0.4533613
0.628836 -0.7410972 0.4533613
0.6524842 -0.7367879 0.4533613
0.6760999 -0.732304 0.4533613
0.6926075 -0.7290366 0.4533613
0.7152655 -0.7244173 0.4533613
0.7378819 -0.7195986 0.4533613
0.7604524 -0.7145688 0.4533613
0.7829706 -0.7093103 0.4533613
0.8058907 -0.703646 0.4533613
0.8508255 -0.6926814 0.4533613
0.8958981 -0.6822978 0.4533613
0.9410112 -0.6720918 0.4533613
0.9861625 -0.6620559 0.4533613
1.030572 -0.6523529 0.4533613
1.12078 -0.6357866 0.4533613
1.212305 -0.6298798 0.4533613
1.30399 -0.6274957 0.4533613
1.395704 -0.6281388 0.4533613
1.481945 -0.630864 0.4533613
1.57231 -0.634793 0.4533613
1.662677 -0.6386994 0.4533613
1.753015 -0.6432114 0.4533613
1.843323 -0.6482933 0.4533613
1.933796 -0.6539078 0.4533613
2.024371 -0.6605029 0.4533613
2.114967 -0.66681 0.4533613
2.205553 -0.6732642 0.4533613
2.296129 -0.6798586 0.4533613
2.386671 -0.6866093 0.4533613
2.477495 -0.693982 0.4533613
2.568334 -0.7011777 0.4533613
2.659165 -0.7084754 0.4533613
2.749987 -0.7158716 0.4533613
2.840794 -0.7234942 0.4533613
2.931931 -0.7317042 0.4533613
3.023063 -0.7399596 0.4533613
3.11418 -0.7483889 0.4533613
3.20528 -0.7569972 0.4533613
3.296504 -0.7661663 0.4533613
3.38807 -0.7760361 0.4533613
3.479603 -0.7861948 0.4533613
3.571102 -0.7966629 0.4533613
3.662528 -0.8077463 0.4533613
3.754416 -0.8198085 0.4533613
3.846584 -0.8328532 0.4533613
3.938658 -0.8465509 0.4533613
4.030617 -0.8609975 0.4533613
4.122337 -0.8768936 0.4533613
4.215483 -0.8945906 0.4533613
4.306577 -0.9134335 0.4533613
4.397389 -0.933588 0.4533613
4.487676 -0.9559749 0.4533613
4.57735 -0.9807087 0.4533613
4.60794 -0.9900558 0.4533613
4.622394 -0.9946199 0.4533613
4.636829 -0.9992449 0.4533613
4.651243 -1.003931 0.4533613
4.665638 -1.008679 0.4533613
4.680221 -1.013557 0.4533613
4.773077 -1.045014 0.4533613
4.864765 -1.079731 0.4533613
4.955129 -1.11776 0.4533613
5.043913 -1.159342 0.4533613
5.14508 -1.213148 0.4533613
5.207046 -1.251519 0.4533613
5.267036 -1.292911 0.4533613
5.324802 -1.337354 0.4533613
5.379812 -1.385166 0.4533613
5.400961 -1.405965 0.4533613
5.442436 -1.44877 0.4533613
5.482109 -1.49325 0.4533613
5.51994 -1.539306 0.4533613
5.555813 -1.586904 0.4533613
5.608592 -1.663356 0.4533613
5.62977 -1.698532 0.4533613
5.649869 -1.734337 0.4533613
5.668864 -1.770739 0.4533613
5.686754 -1.807696 0.4533613
5.701063 -1.839377 0.4533613
5.73836 -1.927046 0.4533613
5.771499 -2.016369 0.4533613
5.800578 -2.107096 0.4533613
5.825834 -2.19896 0.4533613
5.844772 -2.277983 0.4533613
5.863349 -2.366048 0.4533613
5.879853 -2.454525 0.4533613
5.894291 -2.543363 0.4533613
5.907127 -2.632446 0.4533613
5.918016 -2.71836 0.4533613
5.927713 -2.806578 0.4533613
5.936192 -2.89492 0.4533613
5.94356 -2.983363 0.4533613
5.949976 -3.071879 0.4533613
5.955404 -3.159441 0.4533613
5.959909 -3.247707 0.4533613
5.96353 -3.336015 0.4533613
5.966408 -3.424349 0.4533613
5.968592 -3.512704 0.4533613
5.970087 -3.600746 0.4533613
5.97084 -3.688998 0.4533613
5.970788 -3.777254 0.4533613
5.970102 -3.865508 0.4533613
5.968795 -3.953754 0.4533613
5.966868 -4.041963 0.4533613
5.964253 -4.130143 0.4533613
5.960777 -4.218293 0.4533613
5.95661 -4.306413 0.4533613
5.951777 -4.394499 0.4533613
5.946253 -4.482786 0.4533613
5.939993 -4.570814 0.4533613
5.932712 -4.658763 0.4533613
5.924509 -4.746631 0.4533613
5.915475 -4.834417 0.4533613
5.90551 -4.922791 0.4533613
5.894661 -5.010534 0.4533613
5.882488 -5.098103 0.4533613
5.868912 -5.185465 0.4533613
5.854168 -5.272638 0.4533613
5.837897 -5.361247 0.4533613
5.820476 -5.448446 0.4533613
5.801194 -5.535253 0.4533613
5.779928 -5.621595 0.4533613
5.756584 -5.707398 0.4533613
5.730068 -5.796705 0.4533613
5.703584 -5.878113 0.4533613
5.674548 -5.958645 0.4533613
5.642798 -6.038146 0.4533613
5.608191 -6.116446 0.4533613
5.598587 -6.136081 0.4533613
5.589579 -6.154014 0.4533613
5.580401 -6.17186 0.4533613
5.571054 -6.189618 0.4533613
5.561538 -6.207286 0.4533613
5.551412 -6.22566 0.4533613
5.504248 -6.309293 0.4533613
5.452599 -6.390234 0.4533613
5.396469 -6.468133 0.4533613
5.335831 -6.542578 0.4533613
5.245577 -6.640433 0.4533613
5.219592 -6.66408 0.4533613
5.193021 -6.687066 0.4533613
5.165897 -6.709398 0.4533613
5.13824 -6.731065 0.4533613
5.116079 -6.74758 0.4533613
5.03375 -6.806655 0.4533613
4.948135 -6.860859 0.4533613
4.8597 -6.910326 0.4533613
4.768839 -6.955184 0.4533613
4.644203 -7.009398 0.4533613
4.627741 -7.015392 0.4533613
4.611241 -7.021279 0.4533613
4.594707 -7.027071 0.4533613
4.578141 -7.032769 0.4533613
4.558803 -7.039306 0.4533613
4.483714 -7.064171 0.4533613
4.40803 -7.087161 0.4533613
4.331828 -7.108369 0.4533613
4.255171 -7.127872 0.4533613
4.183818 -7.144422 0.4533613
4.092809 -7.163751 0.4533613
4.001515 -7.181695 0.4533613
3.909961 -7.198256 0.4533613
3.818151 -7.213335 0.4533613
3.729033 -7.226557 0.4533613
3.638626 -7.238646 0.4533613
3.548119 -7.249959 0.4533613
3.457521 -7.260523 0.4533613
3.366836 -7.270305 0.4533613
3.277108 -7.279103 0.4533613
3.187019 -7.287085 0.4533613
3.096889 -7.294596 0.4533613
3.006722 -7.301643 0.4533613
2.916521 -7.308238 0.4533613
2.826713 -7.314261 0.4533613
2.736799 -7.319721 0.4533613
2.646869 -7.324882 0.4533613
2.556921 -7.329739 0.4533613
2.466958 -7.334299 0.4533613
2.377172 -7.33852 0.4533613
2.28736 -7.342348 0.4533613
2.197541 -7.345977 0.4533613
2.107713 -7.349401 0.4533613
2.017878 -7.352622 0.4533613
1.928128 -7.355627 0.4533613
1.838378 -7.358354 0.4533613
1.748624 -7.360944 0.4533613
1.658867 -7.363388 0.4533613
1.569105 -7.365686 0.4533613
1.479386 -7.367841 0.4533613
1.389676 -7.369791 0.4533613
1.299963 -7.371641 0.4533613
1.210248 -7.37338 0.4533613
1.120531 -7.37501 0.4533613
1.030837 -7.376531 0.4533613
0.9411515 -7.3779 0.4533613
0.8514646 -7.379186 0.4533613
0.7617763 -7.380383 0.4533613
0.6720869 -7.38149 0.4533613
0.5824105 -7.382508 0.4533613
0.4927407 -7.383402 0.4533613
0.4030702 -7.38422 0.4533613
0.313399 -7.384957 0.4533613
0.2237272 -7.385611 0.4533613
0.1340628 -7.386185 0.4533613
0.04440248 -7.386645 0.4533613
-0.04525822 -7.387027 0.4533613
-0.1349192 -7.387326 0.4533613
-0.2245805 -7.387542 0.4533613
-0.3142383 -7.387675 0.4533613
-0.4038944 -7.387694 0.4533613
-0.4935504 -7.387626 0.4533613
-0.5832064 -7.387468 0.4533613
-0.6728621 -7.38722 0.4533613
-0.7625187 -7.386881 0.4533613
-0.8521754 -7.386418 0.4533613
-0.9418315 -7.385855 0.4533613
-1.031487 -7.38519 0.4533613
-1.121141 -7.384422 0.4533613
-1.210803 -7.383553 0.4533613
-1.300465 -7.382542 0.4533613
-1.390126 -7.381412 0.4533613
-1.479786 -7.380163 0.4533613
-1.569443 -7.378796 0.4533613
-1.659117 -7.377308 0.4533613
-1.74879 -7.375653 0.4533613
-1.838461 -7.373854 0.4533613
-1.928129 -7.371912 0.4533613
-2.017794 -7.369828 0.4533613
-2.107489 -7.367599 0.4533613
-2.197182 -7.365165 0.4533613
-2.28687 -7.362553 0.4533613
-2.376553 -7.359768 0.4533613
-2.46623 -7.356806 0.4533613
-2.55596 -7.353657 0.4533613
-2.645684 -7.350256 0.4533613
-2.735399 -7.346631 0.4533613
-2.825105 -7.342789 0.4533613
-2.914802 -7.338724 0.4533613
-3.00459 -7.334403 0.4533613
-3.094362 -7.329768 0.4533613
-3.18412 -7.324847 0.4533613
-3.273861 -7.319645 0.4533613
-3.363585 -7.314157 0.4533613
-3.45347 -7.308304 0.4533613
-3.54332 -7.302051 0.4533613
-3.633144 -7.295423 0.4533613
-3.722939 -7.288423 0.4533613
-3.812704 -7.281043 0.4533613
-3.902753 -7.273124 0.4533613
-3.992733 -7.264679 0.4533613
-4.082663 -7.255727 0.4533613
-4.172541 -7.246269 0.4533613
-4.262356 -7.236231 0.4533613
-4.352707 -7.225414 0.4533613
-4.442907 -7.213881 0.4533613
-4.533013 -7.201637 0.4533613
-4.623017 -7.188671 0.4533613
-4.712882 -7.174768 0.4533613
-4.803818 -7.159669 0.4533613
-4.894408 -7.143559 0.4533613
-4.984804 -7.126391 0.4533613
-5.074953 -7.107972 0.4533613
-5.164805 -7.088156 0.4533613
-5.257003 -7.066232 0.4533613
-5.287016 -7.058534 0.4533613
-5.316981 -7.05065 0.4533613
-5.34689 -7.042557 0.4533613
-5.376739 -7.034247 0.4533613
-5.399792 -7.027649 0.4533613
-5.462652 -7.00927 0.4533613
-5.525221 -6.98992 0.4533613
[...]
POINT_DATA 24819
 FIELD attributes 1
p 1 24819 float
-7.116974 -7.169353 -7.221744 -7.274146 -7.326558 -7.377281 -7.426393 -7.47704 -7.633284 -7.819079 -8.007871 -8.013699 -8.019526 -8.029467 -8.047303 -8.065199 -8.194954 -8.358705 -8.554042 -8.660819 -8.78549 -8.787821 -8.790156 -8.796367 -8.804008 -8.811738 -8.879597 -8.996893 -9.121539 -9.233589 -9.286684 -9.267744 -9.317413 -9.357339 -9.393746 -9.498043 -9.519039 -9.528338 -9.534644 -9.540791 -9.551698 -9.553415 -9.555442 -9.558026 -9.563795 -9.592107 -9.598373 -9.639586 -9.655913 -9.598378 -9.588023 -9.489458 -9.41987 -9.341308 -9.273288 -9.272535 -9.189882 -9.101878 -9.014618 -8.928314 -8.861412 -8.783079 -8.732128 -8.685943 -8.640276 -8.60869 -8.553118 -8.497648 -8.442795 -8.392259 -8.346565 -8.254674 -8.204714 -8.154482 -8.103992 -8.113354 -8.161136 -8.110228 -8.058251 -8.007784 -7.988791 -7.952028 -7.91934 -7.886598 -7.857159 -7.84926 -7.845276 -7.84187 -7.838483 -7.831592 -7.819068 -7.793674 -7.767598 -7.741526 -7.720234 -7.700912 -7.657049 -7.611707 -7.566771 -7.539579 -7.511032 -7.44361 -7.373315 -7.316002 -7.271352 -7.224018 -7.118238 -7.013518 -6.938166 -6.864366 -6.78596 -6.635329 -6.52001 -6.408416 -6.299104 -6.25962 -6.244756 -6.230024 -6.21512 -6.1982 -6.175489 -6.017946 -5.8538 -5.696723 -5.595871 -5.50518 -5.406581 -5.307358 -5.277254 -5.262284 -5.250494 -5.222568 -5.188039 -5.193035 -5.223998 -5.269097 -5.291792 -5.312764 -5.337624 -5.39325 -5.443472 -5.50502 -5.571174 -5.653457 -5.798521 -5.921602 -5.985594 -6.048643 -6.152823 -6.260351 -6.361378 -6.409187 -6.467607 -6.538139 -6.609444 -6.677952 -6.706422 -6.7426 -6.781041 -6.819931 -6.857369 -6.864857 -6.87371 -6.883055 -6.892779 -6.901907 -6.887389 -6.870544 -6.85378 -6.837451 -6.821201 -6.784635 -6.74524 -6.704082 -6.663557 -6.623363 -6.56519 -6.508322 -6.444609 -6.382004 -6.319701 -6.243269 -6.16957 -6.097947 -6.020927 -5.942515 -5.861694 -5.785879 -5.713901 -5.646717 -5.631493 -5.61951 -5.607706 -5.595775 -5.584154 -5.571337 -5.522051 -5.474357 -5.43704 -5.41073 -5.390607 -5.394012 -5.399782 -5.407146 -5.416092 -5.425076 -5.465554 -5.516584 -5.57781 -5.648501 -5.747167 -5.761415 -5.774794 -5.788216 -5.801441 -5.81701 -5.887202 -5.960825 -6.036385 -6.113748 -6.188276 -6.272523 -6.35575 -6.43255 -6.51044 -6.587843 -6.657034 -6.72758 -6.795447 -6.85673 -6.918563 -6.973247 -7.028862 -7.084702 -7.134306 -7.182408 -7.224988 -7.26827 -7.311657 -7.352457 -7.3897 -7.422784 -7.456418 -7.490105 -7.52303 -7.552065 -7.577897 -7.604165 -7.63046 -7.656781 -7.679766 -7.700073 -7.720718 -7.741378 -7.762053 -7.780811 -7.796786 -7.813001 -7.829225 -7.845459 -7.860722 -7.873019 -7.885453 -7.897893 -7.910341 -7.9225 -7.931243 -7.940004 -7.948772 -7.957546 -7.966515 -7.97149 -7.976407 -7.981331 -7.986262 -7.991717 -7.992657 -7.993492 -7.994337 -7.995191 -7.996825 -7.99324 -7.989469 -7.98571 -7.981964 -7.979276 -7.970371 -7.961197 -7.95204 -7.942901 -7.935221 -7.920133 -7.904697 -7.889286 -7.874085 -7.860567 -7.838394 -7.815798 -7.79324 -7.771467 -7.751145 -7.720976 -7.690319 -7.659721 -7.630885 -7.602931 -7.563919 -7.524383 -7.484944 -7.448854 -7.412548 -7.36405 -7.315042 -7.267651 -7.223247 -7.178129 -7.119912 -7.061296 -7.007555 -6.954625 -6.90075 -6.833321 -6.769724 -6.708763 -6.648613 -6.586916 -6.562682 -6.540148 -6.518018 -6.495773 -6.478643 -6.434063 -6.389272 -6.345255 -6.303834 -6.265012 -6.197661 -6.132499 -6.075723 -6.029183 -5.978269 -5.964383 -5.950668 -5.940938 -5.932463 -5.925792 -5.900141 -5.878526 -5.867092 -5.869403 -5.880026 -5.882323 -5.884644 -5.886886 -5.89166 -5.895777 -5.916687 -5.942188 -5.975858 -6.026757 -6.066849 -6.104561 -6.149519 -6.202683 -6.257859 -6.307984 -6.326623 -6.347857 -6.369309 -6.390574 -6.420276 -6.446414 -6.472819 -6.499483 -6.526409 -6.556103 -6.597093 -6.638503 -6.680526 -6.723137 -6.771168 -6.802018 -6.832947 -6.86425 -6.897616 -6.933488 -6.952776 -6.971977 -6.991435 -7.013076 -7.035801 -7.043313 -7.050757 -7.0584 -7.06772 -7.077686 -7.074262 -7.070849 -7.067612 -7.065435 -7.063908 -7.050458 -7.037065 -7.023846 -7.011145 -6.999192 -6.976498 -6.953944 -6.93158 -6.909414 -6.887911 -6.857027 -6.826415 -6.796038 -6.765907 -6.735847 -6.727408 -6.719128 -6.710863 -6.702614 -6.695579 -6.667203 -6.639017 -6.611063 -6.583387 -6.555403 -6.513933 -6.473322 -6.433337 -6.394029 -6.354027 -6.308912 -6.265106 -6.22264 -6.181682 -6.138753 -6.105796 -6.074623 -6.044604 -6.015839 -6.003124 -5.990116 -5.97854 -5.967545 -5.95715 -5.946979 -5.903372 -5.865284 -5.835163 -5.81345 -5.809872 -5.814123 -5.823508 -5.833743 -5.84481 -5.864731 -5.890304 -5.907386 -5.949423 -6.015859 -6.063096 -6.115725 -6.171042 -6.224548 -6.274833 -6.324079 -6.379916 -6.436035 -6.492646 -6.548436 -6.597933 -6.643051 -6.687809 -6.732776 -6.777943 -6.819446 -6.851273 -6.882545 -6.913936 -6.945442 -6.975075 -6.991988 -7.008292 -7.024683 -7.041162 -7.05662 -7.057779 -7.058437 -7.059183 -7.060018 -7.060639 -7.045633 -7.030333 -7.015155 -7.000101 -6.986312 -6.954827 -6.923456 -6.892309 -6.86166 -6.835175 -6.787592 -6.740865 -6.694685 -6.653862 -6.615449 -6.557118 -6.501956 -6.454918 -6.413124 -6.371568 -6.351108 -6.33311 -6.307322 -6.282518 -6.275244 -6.250094 -6.234673 -6.204915 -6.141182 -6.204958 -6.205093 -6.20917 -6.219528 -6.217702 -6.226689 -6.257194 -6.356932 -6.417064 -6.479012 -6.558014 -6.65509 -6.81762 -7.024277 -7.25844 -7.467368 -7.510954 -7.554496 -7.598219 -7.666877 -7.753799 -7.907334 -8.133572 -8.355211 -8.578125 -8.950969 -9.003507 -9.071924 -9.227956 -9.392905 -9.535218 -9.549744 -9.564263 -9.580571 -9.613672 -9.647263 -9.775517 -9.89358 -9.999535 -10.09122 -10.17442 -10.24655 -10.35081 -10.46563 -10.60226 -10.69674 -10.73025 -10.79981 -10.87351 -10.96298 -11.07394 -11.08366 -11.09349 -11.09893 -11.10447 -11.11049 -11.1152 -11.1243 -11.15599 -11.19835 -11.25604 -11.28533 -11.31731 -11.35203 -11.38407 -11.40836 -11.41258 -11.41422 -11.41426 -11.4144 -11.41467 -11.43575 -11.45811 -11.48168 -11.49222 -11.47101 -11.3882 -11.36035 -11.3637 -11.41605 -11.52596 -11.52738 -11.51696 -11.50137 -11.48057 -11.44035 -11.35447 -11.31174 -11.30424 -11.32002 -11.37757 -11.3382 -11.29769 -11.25726 -11.21482 -11.1655 -11.06133 -10.99717 -10.96476 -10.95368 -10.98362 -10.91413 -10.86819 -10.83292 -10.80872 -10.80935 -10.68834 -10.63847 -10.57026 -10.4593 -10.40827 -10.32626 -10.26492 -10.20751 -10.16603 -10.14933 -10.12161 -10.09492 -10.07153 -10.08207 -10.09571 -9.993801 -9.936552 -9.875035 -9.808822 -9.759169 -9.726497 -9.700356 -9.674674 -9.65697 -9.638803 -9.078387 -8.655681 -8.327981 -8.143798 -7.88728 -7.813521 -7.778847 -7.752315 -7.733961 -7.77713 -7.487378 -7.9406 -8.167884 -8.114 -8.03602 -7.945363 -7.85572 -7.802843 -7.772859 -7.743951 -7.778894 -7.809621 -7.809119 -7.806003 -7.798545 -7.784344 -7.764729 -7.738776 -7.712831 -7.683868 -7.635585 -7.588931 -7.543528 -7.498156 -7.451562 -7.372916 -7.301556 -7.23031 -7.15918 -7.086489 -7.03967 -6.996116 -6.95225 -6.908383 -6.872915 -6.806208 -6.738476 -6.669041 -6.599752 -6.541186 -6.383532 -6.221264 -6.060065 -5.912717 -5.785758 -5.578888 -5.37212 -5.1832 -5.020692 -4.852812 -4.662298 -4.491508 -4.3399 -4.199448 -4.159769 -4.118124 -4.066893 -4.01793 -3.997837 -3.966173 -3.86345 -3.795687 -3.838617 -3.943954 -3.976406 -4.011663 -4.060914 -4.153139 -4.250723 -4.444745 -4.495615 -4.547311 -4.593835 -4.644266 -4.698895 -4.841383 -4.979049 -5.122105 -5.281752 -5.466509 -5.579241 -5.685731 -5.794041 -5.930106 -6.067364 -6.143874 -6.215305 -6.287524 -6.383089 -6.472566 -6.515168 -6.554129 -6.595198 -6.64709 -6.694988 -6.706336 -6.715431 -6.725626 -6.740642 -6.753233 -6.736022 -6.717685 -6.699654 -6.682884 -6.66483 -6.62012 -6.575156 -6.53051 -6.484746 -6.438077 -6.365761 -6.294256 -6.223222 -6.151533 -6.07771 -5.979693 -5.884034 -5.7892 -5.695257 -5.599793 -5.543324 -5.490296 -5.437741 -5.387255 -5.357569 -5.29785 -5.239993 -5.183507 -5.128148 -5.073598 -4.978488 -4.88128 -4.789787 -4.705185 -4.619848 -4.557246 -4.508271 -4.470412 -4.444408 -4.444144 -4.446114 -4.450238 -4.455751 -4.462645 -4.47358 -4.52203 -4.584558 -4.656509 -4.737117 -4.79746 -4.903979 -5.019215 -5.140161 -5.26619 -5.374079 -5.4129 -5.453389 -5.49417 -5.535722 -5.592863 -5.66213 -5.73138 -5.800683 -5.870365 -5.93804 -6.038914 -6.133086 -6.22777 -6.322938 -6.4163 -6.500086 -6.576485 -6.650999 -6.72573 -6.799393 -6.864711 -6.926671 -6.984293 -7.042016 -7.098974 -7.149362 -7.198461 -7.242776 -7.28714 -7.330909 -7.369713 -7.408052 -7.442368 -7.476566 -7.51028 -7.540249 -7.569818 -7.596823 -7.623386 -7.649542 -7.672745 -7.695593 -7.716862 -7.737663 -7.758107 -7.775976 -7.793521 -7.810174 -7.826471 -7.842443 -7.855804 -7.868849 -7.881508 -7.893985 -7.906146 -7.915286 -7.924117 -7.932914 -7.941697 -7.950171 -7.955083 -7.959729 -7.964554 -7.969475 -7.974131 -7.974632 -7.974904 -7.975542 -7.976361 -7.976954 -7.972539 -7.96791 -7.963852 -7.960033 -7.956003 -7.945894 -7.935591 -7.926077 -7.916808 -7.90735 -7.890661 -7.873812 -7.858016 -7.842412 -7.826652 -7.802424 -7.778086 -7.755151 -7.732276 -7.709291 -7.676525 -7.643942 -7.612797 -7.581687 -7.550535 -7.508258 -7.466695 -7.42638 -7.38612 -7.345906 -7.293279 -7.242173 -7.191922 -7.14176 -7.09175 -7.02821 -6.967397 -6.906775 -6.846305 -6.786078 -6.712666 -6.641555 -6.570702 -6.500464 -6.462011 -6.455797 -6.449587 -6.443381 -6.43718 -6.431052 -6.353044 -6.275155 -6.197935 -6.12144 -6.049269 -5.965333 -5.882399 -5.800895 -5.728772 -5.654407 -5.571026 -5.495045 -5.429775 -5.369152 -5.336748 -5.330504 -5.32435 -5.318309 -5.313824 -5.309118 -5.261062 -5.222368 -5.202329 -5.202005 -5.210864 -5.214153 -5.217211 -5.223724 -5.230486 -5.238357 -5.264373 -5.295753 -5.330957 -5.378164 -5.421018 -5.473409 -5.529834 -5.596923 -5.670124 -5.73816 -5.795471 -5.860648 -5.930236 -6.000785 -6.069879 -6.12325 -6.181821 -6.240879 -6.3004 -6.371286 -6.379946 -6.38898 -6.398024 -6.40708 -6.417657 -6.458702 -6.499887 -6.540969 -6.581961 -6.623036 -6.660955 -6.697841 -6.734892 -6.772101 -6.810233 -6.834318 -6.857489 -6.88077 -6.904158 -6.928542 -6.939093 -6.948972 -6.958933 -6.968975 -6.979852 -6.97814 -6.976016 -6.973959 -6.97197 -6.970555 -6.957763 -6.944749 -6.931798 -6.918911 -6.906292 -6.883318 -6.860321 -6.83739 -6.814524 -6.79169 -6.782461 -6.773307 -6.76416 -6.755019 -6.747629 -6.725117 -6.702669 -6.68029 -6.657998 -6.63576 -6.596981 -6.558711 -6.520605 -6.48267 -6.444796 -6.399838 -6.35624 -6.312867 -6.269733 -6.22657 -6.176751 -6.128008 -6.080886 -6.034109 -5.986819 -5.934588 -5.883586 -5.833206 -5.787009 -5.739784 -5.654309 -5.563518 -5.473974 -5.385884 -5.350448 -5.338479 -5.326543 -5.31462 -5.302616 -5.290727 -5.235515 -5.185665 -5.136227 -5.087557 -5.045409 -5.015213 -4.995152 -4.971922 -4.949263 -4.93311 -4.889693 -4.857425 -4.82575 -4.794759 -4.695249 -4.620262 -4.597434 -4.558213 -4.497512 -4.508577 -4.64861 -4.718489 -4.790289 -4.860819 -4.913754 -4.899462 -4.919463 -4.941315 -4.967175 -5.062134