# vtk DataFile Version 2.0
track0
ASCII
DATASET POLYDATA
POINTS 24819 float
-1.001 1e-07 0.4533613
-0.9872983 -0.01564142 0.4533613
-0.9736013 -0.03128703 0.4533613
-0.9599088 -0.04693652 0.4533613
-0.9462204 -0.06258971 0.4533613
-0.9325666 -0.0782115 0.4533613
-0.8981225 -0.1180716 0.4533613
-0.863828 -0.1580606 0.4533613
-0.82987 -0.1983356 0.4533613
-0.7953733 -0.2381503 0.4533613
-0.7603454 -0.2771674 0.4533613
-0.7586268 -0.2790346 0.4533613
-0.7569077 -0.2809013 0.4533613
-0.7551881 -0.2827676 0.4533613
-0.7534674 -0.2846329 0.4533613
-0.7517385 -0.2865031 0.4533613
-0.7113254 -0.3301242 0.4533613
-0.6701392 -0.3730162 0.4533613
-0.6283234 -0.4152947 0.4533613
-0.5852229 -0.4562627 0.4533613
-0.5367948 -0.4987716 0.4533613
-0.5354563 -0.4998629 0.4533613
-0.5341169 -0.5009531 0.4533613
-0.5327766 -0.5020423 0.4533613
-0.5314352 -0.5031299 0.4533613
-0.5300777 -0.5042278 0.4533613
-0.4867751 -0.5391594 0.4533613
-0.4416373 -0.5716849 0.4533613
-0.3949288 -0.6019116 0.4533613
-0.3468052 -0.6298301 0.4533613
-0.3135278 -0.6472044 0.4533613
-0.2911872 -0.658145 0.4533613
-0.2686784 -0.6687354 0.4533613
-0.2459515 -0.6788492 0.4533613
-0.2230277 -0.6885084 0.4533613
-0.2018208 -0.6969666 0.4533613
-0.1875355 -0.7023182 0.4533613
-0.1731636 -0.7074324 0.4533613
-0.1587182 -0.7123351 0.4533613
-0.1442046 -0.7170323 0.4533613
-0.1225223 -0.7237126 0.4533613
-0.116047 -0.7255578 0.4533613
-0.1095591 -0.7273584 0.4533613
-0.103059 -0.7291142 0.4533613
-0.09654677 -0.7308245 0.4533613
-0.09014601 -0.7324586 0.4533613
-0.04544031 -0.7436743 0.4533613
-0.0003568314 -0.7532593 0.4533613
0.04506015 -0.7611135 0.4533613
0.09074107 -0.7672491 0.4533613
0.1333376 -0.7714748 0.4533613
0.1781011 -0.7744369 0.4533613
0.2229302 -0.7761422 0.4533613
0.2677916 -0.7761787 0.4533613
0.3126416 -0.7751663 0.4533613
0.3571152 -0.7731077 0.4533613
0.4019897 -0.7697583 0.4533613
0.4468229 -0.7658951 0.4533613
0.4915826 -0.7612564 0.4533613
0.5362465 -0.7557723 0.4533613
0.5814605 -0.749269 0.4533613
0.605159 -0.7452453 0.4533613
0.628836 -0.7410972 0.4533613
0.6524842 -0.7367879 0.4533613
0.6760999 -0.732304 0.4533613
0.6926075 -0.7290366 0.4533613
0.7152655 -0.7244173 0.4533613
0.7378819 -0.7195986 0.4533613
0.7604524 -0.7145688 0.4533613
0.7829706 -0.7093103 0.4533613
0.8058907 -0.703646 0.4533613
0.8508255 -0.6926814 0.4533613
0.8958981 -0.6822978 0.4533613
0.9410112 -0.6720918 0.4533613
0.9861625 -0.6620559 0.4533613
1.030572 -0.6523529 0.4533613
1.12078 -0.6357866 0.4533613
1.212305 -0.6298798 0.4533613
1.30399 -0.6274957 0.4533613
1.395704 -0.6281388 0.4533613
1.481945 -0.630864 0.4533613
1.57231 -0.634793 0.4533613
1.662677 -0.6386994 0.4533613
1.753015 -0.6432114 0.4533613
1.843323 -0.6482933 0.4533613
1.933796 -0.6539078 0.4533613
2.024371 -0.6605029 0.4533613
2.114967 -0.66681 0.4533613
2.205553 -0.6732642 0.4533613
2.296129 -0.6798586 0.4533613
2.386671 -0.6866093 0.4533613
2.477495 -0.693982 0.4533613
2.568334 -0.7011777 0.4533613
2.659165 -0.7084754 0.4533613
2.749987 -0.7158716 0.4533613
2.840794 -0.7234942 0.4533613
2.931931 -0.7317042 0.4533613
3.023063 -0.7399596 0.4533613
3.11418 -0.7483889 0.4533613
3.20528 -0.7569972 0.4533613
3.296504 -0.7661663 0.4533613
3.38807 -0.7760361 0.4533613
3.479603 -0.7861948 0.4533613
3.571102 -0.7966629 0.4533613
3.662528 -0.8077463 0.4533613
3.754416 -0.8198085 0.4533613
3.846584 -0.8328532 0.4533613
3.938658 -0.8465509 0.4533613
4.030617 -0.8609975 0.4533613
4.122337 -0.8768936 0.4533613
4.215483 -0.8945906 0.4533613
4.306577 -0.9134335 0.4533613
4.397389 -0.933588 0.4533613
4.487676 -0.9559749 0.4533613
4.57735 -0.9807087 0.4533613
4.60794 -0.9900558 0.4533613
4.622394 -0.9946199 0.4533613
4.636829 -0.9992449 0.4533613
4.651243 -1.003931 0.4533613
4.665638 -1.008679 0.4533613
4.680221 -1.013557 0.4533613
4.773077 -1.045014 0.4533613
4.864765 -1.079731 0.4533613
4.955129 -1.11776 0.4533613
5.043913 -1.159342 0.4533613
5.14508 -1.213148 0.4533613
5.207046 -1.251519 0.4533613
5.267036 -1.292911 0.4533613
5.324802 -1.337354 0.4533613
5.379812 -1.385166 0.4533613
5.400961 -1.405965 0.4533613
5.442436 -1.44877 0.4533613
5.482109 -1.49325 0.4533613
5.51994 -1.539306 0.4533613
5.555813 -1.586904 0.4533613
5.608592 -1.663356 0.4533613
5.62977 -1.698532 0.4533613
5.649869 -1.734337 0.4533613
5.668864 -1.770739 0.4533613
5.686754 -1.807696 0.4533613
5.701063 -1.839377 0.4533613
5.73836 -1.927046 0.4533613
5.771499 -2.016369 0.4533613
5.800578 -2.107096 0.4533613
5.825834 -2.19896 0.4533613
5.844772 -2.277983 0.4533613
5.863349 -2.366048 0.4533613
5.879853 -2.454525 0.4533613
5.894291 -2.543363 0.4533613
5.907127 -2.632446 0.4533613
5.918016 -2.71836 0.4533613
5.927713 -2.806578 0.4533613
5.936192 -2.89492 0.4533613
5.94356 -2.983363 0.4533613
5.949976 -3.071879 0.4533613
5.955404 -3.159441 0.4533613
5.959909 -3.247707 0.4533613
5.96353 -3.336015 0.4533613
5.966408 -3.424349 0.4533613
5.968592 -3.512704 0.4533613
5.970087 -3.600746 0.4533613
5.97084 -3.688998 0.4533613
5.970788 -3.777254 0.4533613
5.970102 -3.865508 0.4533613
5.968795 -3.953754 0.4533613
5.966868 -4.041963 0.4533613
5.964253 -4.130143 0.4533613
5.960777 -4.218293 0.4533613
5.95661 -4.306413 0.4533613
5.951777 -4.394499 0.4533613
5.946253 -4.482786 0.4533613
5.939993 -4.570814 0.4533613
5.932712 -4.658763 0.4533613
5.924509 -4.746631 0.4533613
5.915475 -4.834417 0.4533613
5.90551 -4.922791 0.4533613
5.894661 -5.010534 0.4533613
5.882488 -5.098103 0.4533613
5.868912 -5.185465 0.4533613
5.854168 -5.272638 0.4533613
5.837897 -5.361247 0.4533613
5.820476 -5.448446 0.4533613
5.801194 -5.535253 0.4533613
5.779928 -5.621595 0.4533613
5.756584 -5.707398 0.4533613
5.730068 -5.796705 0.4533613
5.703584 -5.878113 0.4533613
5.674548 -5.958645 0.4533613
5.642798 -6.038146 0.4533613
5.608191 -6.116446 0.4533613
5.598587 -6.136081 0.4533613
5.589579 -6.154014 0.4533613
5.580401 -6.17186 0.4533613
5.571054 -6.189618 0.4533613
5.561538 -6.207286 0.4533613
5.551412 -6.22566 0.4533613
5.504248 -6.309293 0.4533613
5.452599 -6.390234 0.4533613
5.396469 -6.468133 0.4533613
5.335831 -6.542578 0.4533613
5.245577 -6.640433 0.4533613
5.219592 -6.66408 0.4533613
5.193021 -6.687066 0.4533613
5.165897 -6.709398 0.4533613
5.13824 -6.731065 0.4533613
5.116079 -6.74758 0.4533613
5.03375 -6.806655 0.4533613
4.948135 -6.860859 0.4533613
4.8597 -6.910326 0.4533613
4.768839 -6.955184 0.4533613
4.644203 -7.009398 0.4533613
4.627741 -7.015392 0.4533613
4.611241 -7.021279 0.4533613
4.594707 -7.027071 0.4533613
4.578141 -7.032769 0.4533613
4.558803 -7.039306 0.4533613
4.483714 -7.064171 0.4533613
4.40803 -7.087161 0.4533613
4.331828 -7.108369 0.4533613
4.255171 -7.127872 0.4533613
4.183818 -7.144422 0.4533613
4.092809 -7.163751 0.4533613
4.001515 -7.181695 0.4533613
3.909961 -7.198256 0.4533613
3.818151 -7.213335 0.4533613
3.729033 -7.226557 0.4533613
3.638626 -7.238646 0.4533613
3.548119 -7.249959 0.4533613
3.457521 -7.260523 0.4533613
3.366836 -7.270305 0.4533613
3.277108 -7.279103 0.4533613
3.187019 -7.287085 0.4533613
3.096889 -7.294596 0.4533613
3.006722 -7.301643 0.4533613
2.916521 -7.308238 0.4533613
2.826713 -7.314261 0.4533613
2.736799 -7.319721 0.4533613
2.646869 -7.324882 0.4533613
2.556921 -7.329739 0.4533613
2.466958 -7.334299 0.4533613
2.377172 -7.33852 0.4533613
2.28736 -7.342348 0.4533613
2.197541 -7.345977 0.4533613
2.107713 -7.349401 0.4533613
2.017878 -7.352622 0.4533613
1.928128 -7.355627 0.4533613
1.838378 -7.358354 0.4533613
1.748624 -7.360944 0.4533613
1.658867 -7.363388 0.4533613
1.569105 -7.365686 0.4533613
1.479386 -7.367841 0.4533613
1.389676 -7.369791 0.4533613
1.299963 -7.371641 0.4533613
1.210248 -7.37338 0.4533613
1.120531 -7.37501 0.4533613
1.030837 -7.376531 0.4533613
0.9411515 -7.3779 0.4533613
0.8514646 -7.379186 0.4533613
0.7617763 -7.380383 0.4533613
0.6720869 -7.38149 0.4533613
0.5824105 -7.382508 0.4533613
0.4927407 -7.383402 0.4533613
0.4030702 -7.38422 0.4533613
0.313399 -7.384957 0.4533613
0.2237272 -7.385611 0.4533613
0.1340628 -7.386185 0.4533613
0.04440248 -7.386645 0.4533613
-0.04525822 -7.387027 0.4533613
-0.1349192 -7.387326 0.4533613
-0.2245805 -7.387542 0.4533613
-0.3142383 -7.387675 0.4533613
-0.4038944 -7.387694 0.4533613
-0.4935504 -7.387626 0.4533613
-0.5832064 -7.387468 0.4533613
-0.6728621 -7.38722 0.4533613
-0.7625187 -7.386881 0.4533613
-0.8521754 -7.386418 0.4533613
-0.9418315 -7.385855 0.4533613
-1.031487 -7.38519 0.4533613
-1.121141 -7.384422 0.4533613
-1.210803 -7.383553 0.4533613
-1.300465 -7.382542 0.4533613
-1.390126 -7.381412 0.4533613
-1.479786 -7.380163 0.4533613
-1.569443 -7.378796 0.4533613
-1.659117 -7.377308 0.4533613
-1.74879 -7.375653 0.4533613
-1.838461 -7.373854 0.4533613
-1.928129 -7.371912 0.4533613
-2.017794 -7.369828 0.4533613
-2.107489 -7.367599 0.4533613
-2.197182 -7.365165 0.4533613
-2.28687 -7.362553 0.4533613
-2.376553 -7.359768 0.4533613
-2.46623 -7.356806 0.4533613
-2.55596 -7.353657 0.4533613
-2.645684 -7.350256 0.4533613
-2.735399 -7.346631 0.4533613
-2.825105 -7.342789 0.4533613
-2.914802 -7.338724 0.4533613
-3.00459 -7.334403 0.4533613
-3.094362 -7.329768 0.4533613
-3.18412 -7.324847 0.4533613
-3.273861 -7.319645 0.4533613
-3.363585 -7.314157 0.4533613
-3.45347 -7.308304 0.4533613
-3.54332 -7.302051 0.4533613
-3.633144 -7.295423 0.4533613
-3.722939 -7.288423 0.4533613
-3.812704 -7.281043 0.4533613
-3.902753 -7.273124 0.4533613
-3.992733 -7.264679 0.4533613
-4.082663 -7.255727 0.4533613
-4.172541 -7.246269 0.4533613
-4.262356 -7.236231 0.4533613
-4.352707 -7.225414 0.4533613
-4.442907 -7.213881 0.4533613
-4.533013 -7.201637 0.4533613
-4.623017 -7.188671 0.4533613
-4.712882 -7.174768 0.4533613
-4.803818 -7.159669 0.4533613
-4.894408 -7.143559 0.4533613
-4.984804 -7.126391 0.4533613
-5.074953 -7.107972 0.4533613
-5.164805 -7.088156 0.4533613
-5.257003 -7.066232 0.4533613
-5.287016 -7.058534 0.4533613
-5.316981 -7.05065 0.4533613
-5.34689 -7.042557 0.4533613
-5.376739 -7.034247 0.4533613
-5.399792 -7.027649 0.4533613
-5.462652 -7.00927 0.4533613
-5.525221 -6.98992 0.4533613
[...]
POINT_DATA 24819
 FIELD attributes 1
U 3 24819 float
1.034575 	-1.181048 	3.10194e-08 1.053094 	-1.202912 	2.899509e-08 1.071618 	-1.224772 	2.697062e-08 1.090149 	-1.24663 	2.494601e-08 1.108685 	-1.268485 	2.292126e-08 1.117852 	-1.293622 	1.549345e-08 1.133657 	-1.3219 	1.284994e-08 1.141364 	-1.353681 	7.851509e-09 1.20944 	-1.395889 	1.646663e-09 1.294351 	-1.441759 	-4.883797e-09 1.372023 	-1.490656 	-1.297284e-08 1.375131 	-1.49322 	-1.330585e-08 1.378239 	-1.495784 	-1.363884e-08 1.381794 	-1.497987 	-1.384312e-08 1.386204 	-1.499497 	-1.38005e-08 1.390629 	-1.501015 	-1.375767e-08 1.448861 	-1.508869 	-1.36689e-08 1.50517 	-1.521824 	-1.12411e-08 1.599851 	-1.520695 	-2.456662e-09 1.686791 	-1.480621 	-7.549167e-09 1.768931 	-1.442246 	-1.343105e-08 1.77103 	-1.441581 	-1.40616e-08 1.773129 	-1.440918 	-1.469181e-08 1.775732 	-1.439737 	-1.58492e-08 1.778521 	-1.438367 	-1.72001e-08 1.781341 	-1.436986 	-1.856516e-08 1.866971 	-1.345302 	-1.494845e-08 1.953562 	-1.264221 	-1.069646e-08 2.042469 	-1.184919 	-6.323018e-09 2.126319 	-1.110158 	-4.302991e-10 2.164922 	-1.06021 	1.160621e-08 2.186545 	-1.028774 	2.819685e-08 2.20771 	-0.9824574 	2.39543e-08 2.231496 	-0.9402625 	1.436794e-08 2.256834 	-0.900126 	2.139547e-09 2.278437 	-0.8535509 	-3.222635e-08 2.291106 	-0.8152821 	-6.576601e-08 2.296022 	-0.7792561 	-6.453434e-08 2.298631 	-0.7439397 	-5.240639e-08 2.300702 	-0.7088391 	-3.713812e-08 2.304222 	-0.656616 	-1.518354e-08 2.30546 	-0.6398431 	-1.284495e-08 2.306762 	-0.6231016 	-1.052438e-08 2.308303 	-0.6062449 	-8.080651e-09 2.310414 	-0.5898262 	-5.587317e-09 2.313848 	-0.5804936 	-5.304171e-09 2.307871 	-0.4906663 	5.722299e-10 2.305899 	-0.3987746 	8.8297e-09 2.294344 	-0.308163 	1.42635e-08 2.254761 	-0.2236768 	1.257522e-08 2.223938 	-0.1471606 	1.479781e-08 2.186647 	-0.08318174 	2.042938e-08 2.145468 	-0.001747906 	3.44173e-08 2.082199 	0.04700374 	1.650521e-08 2.024752 	0.09372071 	-1.254315e-09 1.994125 	0.1488411 	-3.589268e-09 1.956071 	0.1685508 	-9.269871e-09 1.890329 	0.1959049 	-5.32838e-09 1.824355 	0.2240052 	-1.317636e-09 1.758265 	0.2528983 	2.725439e-09 1.687917 	0.2865887 	8.580308e-09 1.668672 	0.2923433 	9.081351e-09 1.639261 	0.2987164 	1.796936e-08 1.608137 	0.3053305 	2.825803e-08 1.576892 	0.3121205 	3.863151e-08 1.554932 	0.3170032 	4.595568e-08 1.522443 	0.3243805 	5.395218e-08 1.489732 	0.3319798 	6.195891e-08 1.456765 	0.3401885 	7.014223e-08 1.423344 	0.3517566 	7.97152e-08 1.416942 	0.3457493 	1.055364e-07 1.435234 	0.330641 	1.258279e-07 1.436956 	0.3250852 	1.332544e-07 1.43823 	0.3196797 	1.405861e-07 1.439076 	0.3144182 	1.47827e-07 1.49941 	0.2753632 	1.365745e-07 1.819235 	0.1174082 	9.303387e-08 1.976361 	0.05139119 	5.098159e-08 2.130607 	-0.01494065 	6.815627e-09 2.257124 	-0.07132442 	-3.138623e-08 2.296575 	-0.09985179 	-2.762294e-08 2.301428 	-0.0994877 	-2.130743e-08 2.346433 	-0.1171939 	-1.610221e-08 2.389775 	-0.1344813 	-1.090855e-08 2.426587 	-0.1505866 	-5.497716e-09 2.476126 	-0.1802954 	-4.62211e-21 2.479877 	-0.1726426 	-3.385963e-21 2.516722 	-0.1793162 	-2.147396e-21 2.55311 	-0.1858802 	-9.07028e-22 2.579586 	-0.1923291 	-7.731683e-23 2.620893 	-0.2127514 	2.593654e-23 2.619617 	-0.2075118 	2.025259e-22 2.642538 	-0.2123113 	4.305516e-22 2.665112 	-0.2170348 	6.586037e-22 2.679478 	-0.2249243 	7.539401e-22 2.712325 	-0.2443403 	8.275624e-22 2.702977 	-0.2448527 	6.554391e-22 2.708129 	-0.250531 	4.273569e-22 2.71277 	-0.2563367 	2.039261e-22 2.721579 	-0.2735518 	2.092415e-22 2.743172 	-0.295686 	1.591475e-22 2.718218 	-0.3016751 	-1.436104e-22 2.699223 	-0.3088117 	-4.943033e-22 2.69032 	-0.3261406 	-6.769465e-22 2.690069 	-0.3531303 	-6.9692e-22 2.693817 	-0.3812561 	-7.613279e-22 2.643119 	-0.3932163 	-3.846595e-23 2.597202 	-0.4080136 	7.493215e-22 2.579213 	-0.4470073 	1.540997e-21 2.557035 	-0.4858144 	2.336592e-21 2.531225 	-0.5235904 	3.213538e-21 2.445071 	-0.5426491 	6.408689e-21 2.397172 	-0.594381 	9.220691e-21 2.343878 	-0.6464943 	1.202324e-20 2.284079 	-0.6979017 	1.471793e-20 2.259861 	-0.7136066 	1.545274e-20 2.249624 	-0.7208079 	1.564645e-20 2.239249 	-0.7279994 	1.583653e-20 2.22882 	-0.7351222 	1.603878e-20 2.220487 	-0.7426919 	1.635931e-20 2.216669 	-0.7509648 	1.699606e-20 2.126943 	-0.8053391 	1.746688e-20 2.031444 	-0.8549202 	1.710442e-20 1.930118 	-0.9039745 	1.665024e-20 1.843209 	-0.9803097 	1.555669e-20 1.74467 	-1.080366 	1.307282e-20 1.640368 	-1.13181 	9.644738e-21 1.530996 	-1.177899 	5.584805e-21 1.449414 	-1.259763 	5.096681e-21 1.364775 	-1.342158 	4.697945e-21 1.327563 	-1.370139 	3.927711e-21 1.262682 	-1.415689 	2.196498e-21 1.196504 	-1.456629 	7.873939e-22 1.138589 	-1.510721 	3.35992e-22 1.085115 	-1.571835 	4.405778e-22 1.000163 	-1.661234 	9.149095e-22 0.9534468 	-1.698526 	1.458596e-21 0.9032375 	-1.730959 	1.296872e-21 0.8533085 	-1.762745 	1.137674e-21 0.8151517 	-1.804749 	1.297422e-21 0.7819053 	-1.837935 	7.963254e-22 0.7069466 	-1.905488 	3.927177e-22 0.6300084 	-1.965657 	-4.002405e-23 0.5564576 	-2.024045 	-5.175087e-22 0.5024514 	-2.096511 	-1.195774e-21 0.453941 	-2.152008 	-1.788746e-21 0.4092168 	-2.193745 	-1.630479e-21 0.3624655 	-2.230226 	-1.476016e-21 0.3277255 	-2.274537 	-1.391668e-21 0.2937054 	-2.317166 	-1.31158e-21 0.2586946 	-2.35352 	-1.236689e-21 0.2284365 	-2.379966 	-9.396755e-22 0.2003168 	-2.404814 	-7.019141e-22 0.1761803 	-2.430351 	-5.527192e-22 0.1521665 	-2.454586 	-4.02745e-22 0.1263128 	-2.474922 	-2.156603e-22 0.102119 	-2.490914 	-1.968788e-22 0.0815681 	-2.503649 	-1.485519e-22 0.06219871 	-2.515363 	-9.376183e-23 0.04287947 	-2.52612 	-3.875633e-23 0.02163199 	-2.533835 	1.444525e-23 -0.001513933 	-2.540825 	-8.274948e-23 -0.019757 	-2.541236 	-1.049083e-22 -0.03761448 	-2.540596 	-1.223745e-22 -0.05547008 	-2.539123 	-1.403091e-22 -0.075178 	-2.534818 	-1.740133e-22 -0.09982605 	-2.531551 	-1.454826e-22 -0.1191571 	-2.520023 	-8.872639e-23 -0.1375421 	-2.506827 	-3.076309e-23 -0.1559793 	-2.492785 	2.656472e-23 -0.1760794 	-2.476155 	9.951725e-23 -0.2037567 	-2.461228 	5.703802e-22 -0.2277133 	-2.439119 	7.975208e-22 -0.2482802 	-2.412778 	9.277448e-22 -0.2689883 	-2.385469 	1.059463e-21 -0.2912619 	-2.355545 	1.091494e-21 -0.3234676 	-2.327035 	1.715614e-21 -0.356773 	-2.295845 	2.244885e-21 -0.3813878 	-2.254896 	2.739708e-21 -0.4063163 	-2.212741 	3.236391e-21 -0.4330169 	-2.167415 	3.648177e-21 -0.4715686 	-2.122906 	5.719047e-21 -0.5112489 	-2.075741 	7.630399e-21 -0.5513626 	-2.026574 	9.537286e-21 -0.5844669 	-1.968523 	1.14593e-20 -0.6194712 	-1.90417 	1.331206e-20 -0.6650075 	-1.844416 	1.645319e-20 -0.7117398 	-1.7822 	1.933438e-20 -0.7592219 	-1.717793 	2.218719e-20 -0.8076237 	-1.650984 	2.491189e-20 -0.8203924 	-1.633152 	2.547896e-20 -0.8318571 	-1.617634 	2.604189e-20 -0.8433222 	-1.602138 	2.659977e-20 -0.8547065 	-1.586964 	2.715058e-20 -0.8661226 	-1.57169 	2.769701e-20 -0.8778296 	-1.556585 	2.825736e-20 -0.9468653 	-1.483861 	2.910464e-20 -1.011497 	-1.403779 	2.774869e-20 -1.077114 	-1.322368 	2.64058e-20 -1.143537 	-1.239842 	2.508121e-20 -1.236219 	-1.125041 	2.122097e-20 -1.265317 	-1.094571 	2.13915e-20 -1.294063 	-1.065419 	2.087678e-20 -1.322696 	-1.036218 	2.036884e-20 -1.3512 	-1.006985 	1.986795e-20 -1.373255 	-0.9853656 	1.878773e-20 -1.44963 	-0.9177919 	1.356994e-20 -1.52439 	-0.8526829 	9.951317e-21 -1.597508 	-0.788689 	6.307382e-21 -1.668875 	-0.7259225 	2.649439e-21 -1.758654 	-0.640359 	-1.125787e-21 -1.768773 	-0.6310484 	-2.024599e-21 -1.7788 	-0.6231007 	-2.217962e-21 -1.788766 	-0.6153024 	-2.344582e-21 -1.798665 	-0.6079622 	-2.241523e-21 -1.810135 	-0.5994241 	-2.126999e-21 -1.856969 	-0.5640895 	-1.925003e-21 -1.901885 	-0.529317 	-2.261015e-21 -1.94552 	-0.4949787 	-2.644628e-21 -1.987916 	-0.4610706 	-3.073294e-21 -2.025477 	-0.4301878 	-3.997117e-21 -2.069433 	-0.406753 	-5.176517e-21 -2.110494 	-0.3817719 	-5.655887e-21 -2.147608 	-0.3527116 	-5.374903e-21 -2.183478 	-0.3239605 	-5.103184e-21 -2.216456 	-0.2963818 	-4.456043e-21 -2.24786 	-0.2809756 	-3.769005e-21 -2.277967 	-0.2655949 	-3.216913e-21 -2.3063 	-0.2487925 	-2.553214e-21 -2.331436 	-0.2286031 	-1.635254e-21 -2.354848 	-0.2086272 	-8.583553e-22 -2.377796 	-0.1981696 	-7.910213e-22 -2.399614 	-0.1875417 	-8.260386e-22 -2.421007 	-0.1769984 	-8.618533e-22 -2.43978 	-0.1636334 	-8.155523e-22 -2.456508 	-0.1491739 	-8.433577e-22 -2.473593 	-0.1419429 	-8.73427e-22 -2.489626 	-0.1344456 	-8.858089e-22 -2.505368 	-0.1269901 	-8.982789e-22 -2.519939 	-0.1184524 	-8.506852e-22 -2.532026 	-0.1079278 	-6.921608e-22 -2.544967 	-0.1028422 	-6.601758e-22 -2.556889 	-0.09745088 	-5.807018e-22 -2.568606 	-0.09208126 	-5.008927e-22 -2.579867 	-0.08640569 	-4.161703e-22 -2.588701 	-0.07865464 	-2.591421e-22 -2.598654 	-0.07497756 	-2.611959e-22 -2.607592 	-0.07098758 	-2.363962e-22 -2.616382 	-0.06700945 	-2.113122e-22 -2.625026 	-0.06304307 	-1.859469e-22 -2.631545 	-0.05720709 	-1.921181e-22 -2.639258 	-0.05439996 	-1.819511e-22 -2.645948 	-0.05129478 	-1.520474e-22 -2.652525 	-0.04819656 	-1.220063e-22 -2.658991 	-0.04510523 	-9.182866e-23 -2.663855 	-0.04064205 	-1.217496e-22 -2.669784 	-0.03829816 	-1.033614e-22 -2.674671 	-0.03568615 	-8.357826e-23 -2.679465 	-0.03307857 	-6.377833e-23 -2.684166 	-0.03047539 	-4.396173e-23 -2.687633 	-0.02677941 	-3.825071e-23 -2.692005 	-0.02457182 	-3.785592e-23 -2.695306 	-0.0221347 	-3.42367e-23 -2.698522 	-0.01970066 	-3.062083e-23 -2.701653 	-0.01726967 	-2.700829e-23 -2.703816 	-0.01387623 	-8.116361e-24 -2.706665 	-0.01154347 	-4.755127e-24 -2.708413 	-0.009035625 	-5.070154e-25 -2.710074 	-0.006529971 	3.753055e-24 -2.711649 	-0.004026509 	8.025053e-24 -2.712509 	-0.0005679391 	9.870582e-24 -2.713672 	0.002056511 	7.610625e-24 -2.71369 	0.004787083 	6.59118e-24 -2.713614 	0.007516368 	5.579983e-24 -2.713446 	0.01024436 	4.577033e-24 -2.712785 	0.01401446 	7.804412e-26 -2.711976 	0.01703996 	-1.206099e-24 -2.710016 	0.02010494 	-1.876737e-24 -2.707952 	0.02316993 	-2.545536e-24 -2.705785 	0.02623492 	-3.21249e-24 -2.703358 	0.03048687 	-4.010725e-24 -2.700329 	0.03402903 	-4.185812e-24 -2.696143 	0.03754728 	-3.778434e-24 -2.691838 	0.04106752 	-3.370227e-24 -2.687413 	0.04458974 	-2.961189e-24 -2.683024 	0.04952212 	-8.35787e-24 -2.677436 	0.05371321 	1.12829e-23 -2.670689 	0.05781493 	3.330271e-23 -2.663801 	0.0619217 	5.531048e-23 -2.656771 	0.06603355 	7.730609e-23 -2.65019 	0.07192179 	7.816773e-23 -2.64164 	0.07691632 	9.844005e-23 -2.631925 	0.0817541 	9.995548e-23 -2.62204 	0.08660183 	1.014082e-22 -2.612155 	0.09165229 	1.006579e-22 -2.602959 	0.09868004 	5.749088e-23 -2.590955 	0.1046684 	4.133828e-23 -2.577771 	0.1104306 	1.461079e-24 -2.56438 	0.1162107 	-3.855268e-23 -2.551457 	0.1227804 	-7.287715e-23 -2.539035 	0.1310961 	-1.161618e-22 -2.522969 	0.138317 	-1.139864e-22 -2.505691 	0.1452402 	-1.288731e-22 -2.488156 	0.1521943 	-1.438751e-22 -2.471897 	0.1609511 	-1.089246e-22 -2.455611 	0.1709082 	-4.935529e-23 -2.434726 	0.1796663 	1.391931e-22 -2.412574 	0.1880552 	3.764089e-22 -2.390095 	0.1964969 	6.137549e-22 -2.37022 	0.2084382 	8.856421e-22 -2.349247 	0.2204996 	1.211484e-21 -2.322598 	0.2312019 	1.582223e-21 -2.294594 	0.2414699 	1.897393e-21 -2.267481 	0.2534049 	2.176848e-21 -2.242414 	0.2684786 	2.387288e-21 -2.215677 	0.2832867 	2.543008e-21 -2.182059 	0.2965259 	2.421227e-21 -2.146953 	0.3092859 	2.147872e-21 -2.115421 	0.3272776 	1.584552e-21 -2.083543 	0.3459421 	9.949097e-22 -2.049556 	0.3644913 	2.431573e-22 -2.00737 	0.3812303 	1.45621e-22 -1.967037 	0.4019001 	-8.206595e-23 -1.927605 	0.4251197 	-4.328462e-22 -1.887252 	0.4487781 	-7.920825e-22 -1.843756 	0.4728595 	-1.061552e-21 -1.826946 	0.4806894 	-8.968284e-22 -1.810924 	0.4900173 	-1.073026e-21 -1.79501 	0.4997037 	-1.284285e-21 -1.77847 	0.5090098 	-1.537571e-21 -1.765505 	0.5162085 	-1.74135e-21 -1.730971 	0.5353183 	-1.884804e-21 -1.695212 	0.5539636 	-1.996811e-21 -1.658864 	0.5728344 	-2.104512e-21 -1.623326 	0.5933451 	-2.285394e-21 -1.588404 	0.6185288 	-2.661234e-21 -1.526853 	0.6535268 	-3.035452e-21 -1.463143 	0.6885321 	-3.691137e-21 -1.402076 	0.7283223 	-3.305252e-21 -1.344714 	0.7740253 	-1.592261e-21 -1.27416 	0.8286925 	2.063856e-22 -1.253526 	0.8427482 	4.503478e-22 -1.231885 	0.8560331 	2.055355e-22 -1.212819 	0.8718942 	-1.106872e-22 -1.19422 	0.8883631 	-4.30873e-22 -1.178353 	0.9007622 	-1.177913e-21 -1.120174 	0.9440171 	-1.807602e-21 -1.060602 	0.9868014 	-3.818632e-21 -1.004193 	1.032828 	-4.592768e-21 -0.9535131 	1.084005 	-3.339791e-21 -0.875123 	1.16128 	-2.761402e-21 -0.8646627 	1.171022 	-3.036536e-21 -0.8540716 	1.180531 	-3.042451e-21 -0.8432635 	1.189674 	-2.624523e-21 -0.8344231 	1.200136 	-2.278734e-21 -0.8257183 	1.20917 	-1.007147e-21 -0.7699352 	1.261857 	-1.854917e-21 -0.7143287 	1.312888 	-2.236996e-21 -0.6614615 	1.364272 	-2.553878e-21 -0.618608 	1.420491 	-2.386435e-21 -0.5865217 	1.461002 	-1.779377e-21 -0.5455804 	1.500465 	-2.266484e-21 -0.5092557 	1.540642 	-2.268524e-21 -0.4777109 	1.582267 	-2.236818e-21 -0.4465367 	1.622991 	-2.23585e-21 -0.4183177 	1.658298 	-1.808574e-21 -0.4043672 	1.671615 	-1.274343e-21 -0.3932451 	1.685529 	-1.244152e-21 -0.3821622 	1.699297 	-1.215632e-21 -0.3710572 	1.712761 	-1.231045e-21 -0.3553261 	1.731324 	-1.322167e-21 -0.3421079 	1.747116 	-1.39367e-21 -0.3287849 	1.762562 	-1.438684e-21 -0.3150946 	1.777453 	-1.421558e-21 -0.3015101 	1.792163 	-1.40633e-21 -0.2902451 	1.80651 	-1.507929e-21 -0.2689916 	1.82938 	-1.529211e-21 -0.2469519 	1.850812 	-1.450753e-21 -0.225141 	1.871677 	-1.369721e-21 -0.2035556 	1.89199 	-1.28621e-21 -0.1883405 	1.912131 	-9.468849e-22 -0.1706115 	1.927061 	-8.170619e-22 -0.1521112 	1.940708 	-7.209168e-22 -0.1337349 	1.953899 	-6.243159e-22 -0.1177856 	1.967 	-4.64147e-22 -0.1048874 	1.979353 	-2.371176e-22 -0.08944064 	1.987337 	-2.11933e-22 -0.07325892 	1.994158 	-1.884674e-22 -0.05713946 	2.000594 	-1.659418e-22 -0.04431965 	2.006892 	-1.66013e-22 -0.03294799 	2.01224 	-1.820565e-22 -0.01894939 	2.013868 	-1.263768e-22 -0.00425559 	2.014389 	-6.548939e-23 0.0104166 	2.014566 	-5.186453e-24 0.02180272 	2.014404 	9.011596e-24 0.03221931 	2.013198 	5.30683e-24 0.04536977 	2.008778 	6.459708e-24 0.05915212 	2.003323 	-4.176925e-25 0.07294448 	1.997542 	-7.382235e-24 0.08415352 	1.991275 	-2.927834e-23 0.09406462 	1.983884 	-7.037581e-23 0.1068112 	1.973731 	-1.437865e-22 0.1201248 	1.962579 	-1.95629e-22 0.1334785 	1.9511 	-2.47354e-22 0.1455451 	1.939143 	-2.805856e-22 0.155362 	1.925833 	-2.527551e-22 0.1681063 	1.910028 	-1.693375e-22 0.1813657 	1.893245 	-1.143713e-22 0.1946994 	1.876113 	-5.980746e-23 0.2081084 	1.858624 	-5.659045e-24 0.2187471 	1.839509 	4.103032e-23 0.2318885 	1.817984 	6.041019e-24 0.2455162 	1.795476 	-9.113476e-23 0.2592648 	1.772573 	-1.888627e-22 0.2731372 	1.749266 	-2.871532e-22 0.2869958 	1.72455 	-4.374367e-22 0.289913 	1.718785 	-4.306081e-22 0.2931417 	1.71244 	-4.185934e-22 0.2963807 	1.706071 	-4.066438e-22 0.2996299 	1.699677 	-3.947602e-22 0.302415 	1.694193 	-3.846629e-22 0.3141066 	1.671783 	-4.495585e-22 0.3260207 	1.648978 	-3.718215e-22 0.3381275 	1.62581 	-2.125315e-22 0.3503882 	1.60232 	-4.777415e-23 0.3631865 	1.577891 	4.157082e-22 0.3821658 	1.543702 	4.217176e-22 0.3988487 	1.508191 	7.351974e-22 0.4159043 	1.472061 	1.05369e-21 0.4333505 	1.435287 	1.377414e-21 0.4521207 	1.39614 	1.769465e-21 0.4739025 	1.353532 	3.616609e-22 0.4964511 	1.309935 	-1.167767e-21 0.5184379 	1.265442 	-2.504847e-21 0.5392303 	1.220044 	-3.549952e-21 0.5628916 	1.169508 	-4.82722e-21 0.5809839 	1.129793 	5.046763e-09 0.5997291 	1.089147 	1.156808e-08 0.6189758 	1.047943 	1.799622e-08 0.6387395 	1.006184 	2.431952e-08 0.6488714 	0.9850356 	2.892154e-08 0.661506 	0.9626197 	3.114575e-08 0.674498 	0.9402922 	3.593322e-08 0.6877061 	0.917848 	4.072113e-08 0.701131 	0.8952935 	4.550747e-08 0.7166928 	0.8698934 	5.34742e-08 0.7622334 	0.7982626 	7.514202e-08 0.8100314 	0.7264832 	9.219929e-08 0.8591688 	0.6548111 	1.088172e-07 0.9093795 	0.5836995 	1.248776e-07 0.9264836 	0.5594804 	1.230685e-07 0.9441144 	0.5428565 	1.305054e-07 0.9614577 	0.5254311 	1.318214e-07 0.9788562 	0.5081743 	1.330335e-07 0.9963007 	0.491091 	1.341428e-07 1.018962 	0.4678787 	1.29451e-07 1.056612 	0.4312223 	1.386578e-07 1.088546 	0.3962318 	1.287023e-07 1.129561 	0.3658364 	1.238645e-07 1.179483 	0.3399677 	1.240658e-07 1.21848 	0.3204559 	1.085699e-07 1.264518 	0.2947567 	8.423161e-08 1.310426 	0.2721185 	6.377784e-08 1.354624 	0.2476154 	4.201074e-08 1.396683 	0.2201358 	1.840919e-08 1.436085 	0.1969329 	-7.261771e-21 1.468974 	0.1817959 	-6.083267e-21 1.501488 	0.1686767 	-5.183315e-21 1.533588 	0.1558781 	-4.296233e-21 1.565114 	0.1420727 	-3.266321e-21 1.595068 	0.1246694 	-1.846464e-21 1.616546 	0.1134806 	-1.485738e-21 1.637661 	0.103874 	-1.213675e-21 1.658508 	0.09440434 	-9.428838e-22 1.679094 	0.08506685 	-6.733291e-22 1.699294 	0.07278881 	-1.699026e-22 1.711337 	0.06334351 	-1.347852e-22 1.723011 	0.05524394 	-8.382687e-23 1.734483 	0.0472084 	-3.118515e-23 1.745757 	0.03923573 	2.310292e-23 1.75701 	0.02958206 	-7.878588e-23 1.760099 	0.02063608 	-1.026166e-22 1.762745 	0.01289998 	-1.042071e-22 1.765214 	0.005189517 	-1.061335e-22 1.767506 	-0.002495324 	-1.083936e-22 1.77 	-0.01174517 	-6.840737e-23 1.76379 	-0.02106601 	7.615513e-24 1.757055 	-0.02929319 	7.468726e-23 1.750138 	-0.03752727 	1.41649e-22 1.743036 	-0.04576811 	2.084982e-22 1.736617 	-0.0565987 	3.129194e-22 1.720297 	-0.06725971 	3.156432e-22 1.703365 	-0.07694858 	2.900409e-22 1.686218 	-0.08669355 	2.649269e-22 1.668851 	-0.0964957 	2.403149e-22 1.653354 	-0.1116838 	1.758281e-22 1.625243 	-0.1251004 	1.730918e-22 1.596371 	-0.1376963 	2.31639e-22 1.56722 	-0.1504572 	2.907244e-22 1.538085 	-0.1640696 	3.585296e-22 1.512908 	-0.188034 	6.208982e-22 1.470684 	-0.2065699 	6.549947e-22 1.427608 	-0.2245883 	6.008671e-22 1.384175 	-0.243062 	5.501255e-22 1.345248 	-0.2724593 	5.166177e-22 1.306537 	-0.3073011 	4.026382e-22 1.245776 	-0.3357568 	5.172981e-09 1.183769 	-0.3645886 	1.133534e-08 1.12795 	-0.4088148 	2.941745e-08 1.074725 	-0.4607921 	5.249389e-08 1.014228 	-0.5211183 	7.979468e-08 0.9881525 	-0.5389501 	8.78599e-08 0.9620138 	-0.5567263 	9.325226e-08 0.9361705 	-0.5808472 	9.883681e-08 0.9105396 	-0.605522 	1.043712e-07 0.8919869 	-0.622939 	1.032275e-07 0.8489137 	-0.6745306 	1.190013e-07 0.8055438 	-0.7272367 	1.233915e-07 0.7540088 	-0.7902114 	1.230151e-07 0.6840964 	-0.8724399 	1.133445e-07 0.6519597 	-1.022277 	8.991253e-08 0.6491278 	-1.037402 	8.632437e-08 0.6468333 	-1.052367 	8.247145e-08 0.6453285 	-1.067016 	7.816262e-08 0.6315825 	-1.084172 	7.069009e-08 0.6153452 	-1.099007 	6.403993e-08 0.6108593 	-1.179815 	5.167599e-08 0.6227143 	-1.264605 	4.730943e-08 0.6194908 	-1.3343 	3.285549e-08 0.6175986 	-1.403872 	1.843203e-08 0.6101557 	-1.467279 	7.667128e-09 0.6502504 	-1.504392 	-5.622816e-10 0.6811468 	-1.583734 	-6.319715e-09 0.7112706 	-1.699253 	-1.205969e-08 0.8049423 	-1.763748 	2.149073e-09 0.8728841 	-1.819389 	1.471275e-08 0.8874345 	-1.831946 	1.272617e-08 0.9019115 	-1.844539 	1.069871e-08 0.9163728 	-1.857305 	8.736838e-09 0.9347137 	-1.8687 	1.491296e-08 0.954853 	-1.880185 	2.618561e-08 1.043208 	-1.928702 	6.711018e-08 1.120114 	-1.957297 	6.5327e-08 1.189686 	-1.992136 	6.685584e-08 1.258792 	-2.027583 	6.827583e-08 1.341215 	-2.064066 	3.119403e-08 1.368107 	-2.065606 	1.921901e-08 1.394575 	-2.067037 	1.091824e-08 1.442514 	-2.077047 	5.026646e-09 1.489359 	-2.086132 	3.344275e-09 1.529455 	-2.094204 	2.00151e-09 1.536642 	-2.09513 	1.356096e-09 1.543826 	-2.096062 	7.122675e-10 1.55083 	-2.096676 	6.206981e-11 1.556166 	-2.094274 	-6.609117e-10 1.561579 	-2.091842 	-1.392907e-09 1.595051 	-2.090396 	-4.920541e-09 1.633008 	-2.076925 	-1.569067e-09 1.675285 	-2.05919 	4.223867e-09 1.72102 	-2.04107 	1.062348e-08 1.770823 	-2.009101 	2.3206e-08 1.857289 	-1.957536 	3.867009e-08 1.942471 	-1.895826 	4.276717e-08 2.027231 	-1.835275 	4.621828e-08 2.11232 	-1.774638 	4.576737e-08 2.150227