# vtk DataFile Version 2.0
sampleSurface
ASCII
DATASET POLYDATA
POINTS 3883 double
0.2553769 -0.1534114 0.5
0.2609767 -0.1437021 0.5
0.2113502 0.2102498 0.5
0.2965045 0.03261345 0.5
0.2965621 -0.03213245 0.5
0.2968473 0.02940947 0.5
0.2969056 -0.02892767 0.5
0.2962361 -0.03517393 0.5
0.2961794 0.03565238 0.5
0.2972069 0.02604847 0.5
0.2972659 -0.02556673 0.5
0.295706 -0.0401199 0.5
0.2956499 0.04060139 0.5
0.2975731 0.02262584 0.5
0.2976327 -0.02214452 0.5
0.2953818 -0.04314411 0.5
0.2953261 0.04362778 0.5
0.29794 0.01919681 0.5
0.1846834 -0.2345921 0.5
-0.2964366 0.03562373 0.5
0.03462962 0.2965671 0.5
0.2980002 -0.01871577 0.5
-0.03374855 0.2966828 0.5
-0.2952759 -0.04446637 0.5
-0.2969446 -0.03175369 0.5
-0.1196093 0.2736575 0.5
-0.04664712 0.2949897 0.5
0.2736465 0.1196358 0.5
0.2950273 -0.04645222 0.5
-0.2735194 0.1199437 0.5
0.1202822 0.2733796 0.5
0.04752182 0.2948749 0.5
0.2949716 0.04694145 0.5
-0.2947714 0.04831007 0.5
-0.2316218 0.1886146 0.5
-0.1886216 0.2316164 0.5
0.1974746 0.2241254 0.5
0.2983064 0.01577212 0.5
0.1149686 -0.2757276 0.5
0.2983673 -0.01529103 0.5
-0.1736335 0.2431407 0.5
-0.2431889 0.1735709 0.5
0.2253024 0.1962976 0.5
0.2946629 -0.04985108 0.5
0.2946065 0.05035363 0.5
0.1038238 -0.2802681 0.5
0.2810402 0.1017318 0.5
-0.2810757 0.1016458 0.5
0.1016365 0.2810796 0.5
0.2455597 -0.1704335 0.5
-0.07263649 -0.2899607 0.5
0.2986708 0.01236555 0.5
-0.1008963 0.2813852 0.5
0.2708072 -0.126657 0.5
0.2987324 -0.01188419 0.5
0.2965218 -0.03825887 0.5
0.2964664 0.0387396 0.5
-0.2981807 0.02233628 0.5
-0.2134762 -0.2094238 0.5
0.2942976 -0.05325961 0.5
-0.2936882 -0.056562 0.5
0.02114477 0.2983371 0.5
0.2693522 0.1300345 0.5
0.2942404 0.05377539 0.5
-0.130376 0.2692112 0.5
-0.2692095 0.1303802 0.5
-0.02026121 0.2984531 0.5
0.1309795 0.268962 0.5
0.2990247 0.009057977 0.5
0.1691485 -0.2467837 0.5
-0.2249888 0.1972412 0.5
0.299087 -0.00857646 0.5
-0.1973082 0.2249373 0.5
0.2000575 -0.2225269 0.5
-0.05893014 0.2933774 0.5
-0.03428503 -0.2972739 0.5
-0.2986896 -0.01845963 0.5
-0.09214694 -0.2847423 0.5
0.05979183 0.2932643 0.5
-0.2931908 0.0603518 0.5
0.2939322 -0.05666872 0.5
-0.06061354 -0.2931764 0.5
0.2938804 0.05714057 0.5
0.2993464 0.006050824 0.5
-0.02046715 -0.2987112 0.5
0.2994092 -0.005570185 0.5
0.2273406 -0.1949241 0.5
0.09301223 -0.2846728 0.5
-0.1996443 -0.2232557 0.5
-0.2828855 -0.09847279 0.5
0.2441375 0.173546 0.5
0.1742993 0.2436051 0.5
0.2966631 -0.04148998 0.5
0.2851675 0.09173746 0.5
0.1334004 -0.2682183 0.5
0.2966086 0.0419733 0.5
0.2828437 -0.09869274 0.5
-0.2658889 -0.1380265 0.5
0.02138066 -0.2988646 0.5
-0.2459316 -0.1711878 0.5
0.2935643 -0.06010087 0.5
-0.2856264 0.09062617 0.5
0.04873792 -0.2956719 0.5
0.2935363 0.06035678 0.5
0.09041856 0.2857122 0.5
-0.1597755 -0.2535557 0.5
-0.2562957 -0.1553537 0.5
-0.04784141 -0.2958638 0.5
-0.2711763 -0.127629 0.5
-0.114601 -0.2769549 0.5
-0.1427578 -0.2635574 0.5
0.06158644 -0.2933439 0.5
-0.1327359 -0.2687571 0.5
-0.08963896 0.2860341 0.5
0.2329478 0.1886522 0.5
0.1831327 0.2373624 0.5
0.2985137 0.02777041 0.5
0.0352344 -0.2977259 0.5
0.2988141 0.02434842 0.5
-0.2120404 0.2119596 0.5
0.2985708 -0.02728861 0.5
-0.07847789 0.2893647 0.5
0.2891782 0.07917348 0.5
-0.290029 -0.07599943 0.5
0.07930643 0.2891426 0.5
-0.2890502 0.07965099 0.5
0.2988726 -0.0238669 0.5
-0.1690542 -0.2476288 0.5
0.1434936 -0.2632726 0.5
-0.2998 -0.004875469 0.5
0.2998365 0.00147065 0.5
-0.2759958 -0.1171813 0.5
0.07375661 -0.2906302 0.5
0.2964852 -0.04477005 0.5
0.2883721 -0.08218094 0.5
-0.2396836 -0.180185 0.5
0.2910039 -0.0723623 0.5
0.2964339 0.04525992 0.5
-0.006489622 0.2998 0.5
-0.006541264 -0.2998 0.5
-0.2273214 -0.1955786 0.5
0.2991545 0.02091586 0.5
-0.2607846 0.1480736 0.5
0.007382114 0.2998 0.5
0.007444088 -0.2998 0.5
0.260979 0.1477374 0.5
0.299899 -0.001000206 0.5
0.2914786 0.07059132 0.5
0.2992139 -0.02043469 0.5
0.2865328 -0.08858073 0.5
0.2762571 -0.1167471 0.5
0.2875755 0.08515303 0.5
0.2983071 0.03114408 0.5
-0.2998 0.008789005 0.5
0.298362 -0.03066256 0.5
0.2145512 -0.2095988 0.5
-0.1850254 -0.2361036 0.5
-0.1033985 -0.2815871 0.5
-0.2870422 -0.08714239 0.5
0.2921721 0.06800412 0.5
0.2923771 -0.06712061 0.5
0.2932108 0.06339898 0.5
0.1604772 -0.2534599 0.5
0.2931813 -0.06358235 0.5
0.2554292 0.1573386 0.5
-0.2552032 0.1577294 0.5
0.2995036 0.01748752 0.5
0.2400887 -0.1799133 0.5
0.158778 0.2545742 0.5
-0.1582802 0.2548849 0.5
0.1417024 0.2644674 0.5
-0.1412064 0.2647386 0.5
0.2995637 -0.01700648 0.5
0.2961937 -0.04814833 0.5
0.2961492 0.04864943 0.5
0.2998426 0.01406876 0.5
0.2999032 -0.01358776 0.5
0.3001902 0.004316958 0.5
0.2982413 0.03444486 0.5
0.2982967 -0.03396435 0.5
0.2976233 -0.03948278 0.5
0.29757 0.03996503 0.5
0.300252 -0.003840761 0.5
0.2958564 -0.05155363 0.5
0.3001422 0.0106859 0.5
0.3002032 -0.01020499 0.5
0.2958303 0.05207629 0.5
0.3003455 0.007407681 0.5
0.3004067 -0.006927946 0.5
0.2955051 -0.05496077 0.5
0.2955372 0.05550053 0.5
0.2932927 0.06638709 0.5
0.2951551 -0.0583719 0.5
0.2978209 -0.04297098 0.5
0.2977676 0.0434571 0.5
0.2986742 -0.03743159 0.5
0.2986228 0.03791616 0.5
0.2907609 -0.07838087 0.5
0.2953332 0.05888271 0.5
0.3000892 0.0260626 0.5
0.2948181 -0.06179976 0.5
0.3001462 -0.02558116 0.5
0.300387 0.0226288 0.5
0.3004453 -0.02214755 0.5
0.1133835 0.2791096 0.5
-0.1126876 0.2794013 0.5
0.2976814 -0.04641476 0.5
0.2679985 -0.1376504 0.5
0.2976405 0.04690978 0.5
0.300719 0.01919765 0.5
0.2998969 0.02949479 0.5
0.2999508 -0.02901338 0.5
-0.183287 0.2392068 0.5
0.3007782 -0.01871662 0.5
0.2932834 0.06950188 0.5
-0.2392999 0.183263 0.5
0.2526388 -0.1644165 0.5
0.3013878 0.0054294 0.5
0.3010494 0.01576838 0.5
0.3014478 -0.00495191 0.5
0.3011094 -0.01528744 0.5
0.2943873 -0.06528004 0.5
0.2973994 -0.04983944 0.5
0.30134 0.01233697 0.5
0.2973746 0.05035013 0.5
-0.08489963 -0.2894326 0.5
0.3014002 -0.01185614 0.5
0.3015043 0.008896898 0.5
0.3015648 -0.008416813 0.5
0.2999699 -0.03244495 0.5
0.2999194 0.03292617 0.5
-0.2796192 0.1134195 0.5
0.2922859 0.07496694 0.5
0.2952689 0.06219414 0.5
0.2797245 0.1132272 0.5
0.2970663 -0.05325097 0.5
0.2970986 0.05378873 0.5
-0.2940593 -0.06877011 0.5
-0.07120646 0.2934909 0.5
0.07204497 0.2933106 0.5
0.08585235 -0.2896204 0.5
0.2967271 -0.05665335 0.5
-0.2932707 0.07247335 0.5
0.1268079 -0.2742294 0.5
0.2071767 0.2199119 0.5
0.299338 -0.04121343 0.5
-0.2813526 -0.1102259 0.5
0.2992861 0.04169669 0.5
0.2944953 0.06775823 0.5
0.2403818 0.1832153 0.5
0.3022763 0.0002382947 0.5
-0.2530353 -0.1654718 0.5
0.2969147 0.05722716 0.5
0.2902291 -0.08490989 0.5
0.2911279 0.08179323 0.5
0.1687378 0.250964 0.5
0.2964093 -0.06004592 0.5
0.3002363 0.03638373 0.5
0.3002952 -0.0359 0.5
-0.2671835 0.1417408 0.5
0.2673651 0.141398 0.5
0.2212498 0.2062346 0.5
0.1950838 -0.2312422 0.5
0.3025298 0.003467315 0.5
0.3025802 -0.002993906 0.5
-0.1537677 -0.2606631 0.5
0.281873 -0.1102282 0.5
-0.1262744 -0.2750656 0.5
0.2994011 -0.04468466 0.5
0.2993628 0.04518275 0.5
-0.1685505 0.2515267 0.5
0.2896204 0.08830175 0.5
0.1544531 -0.2604372 0.5
0.2955904 0.06567893 0.5
0.1799324 -0.2436104 0.5
-0.2092261 -0.2189698 0.5
0.2961492 -0.06342473 0.5
0.3020305 0.02435223 0.5
0.3020862 -0.02387111 0.5
0.3023153 0.02091855 0.5
0.3023725 -0.02043742 0.5
0.296942 0.06067086 0.5
0.2992317 -0.04812505 0.5
-0.2230824 -0.2051604 0.5
0.3018149 0.02778601 0.5
0.301866 -0.02730421 0.5
-0.2519592 0.1684923 0.5
0.3026167 0.01748689 0.5
0.2099419 -0.2186697 0.5
0.2992191 0.04863181 0.5
0.3026752 -0.01700604 0.5
0.3030974 0.007153167 0.5
0.1932839 0.2336141 0.5
0.3028939 0.01405502 0.5
0.3031528 -0.006675854 0.5
0.2947558 0.07126605 0.5
0.3029521 -0.01357471 0.5
0.3030861 0.0106159 0.5
0.2236249 -0.2049092 0.5
0.3031439 -0.01013597 0.5
-0.1950238 -0.2323271 0.5
0.3017781 -0.0307333 0.5
0.3017386 0.03121549 0.5
0.2959111 -0.06679559 0.5
0.298957 -0.05154143 0.5
0.30082 -0.03943907 0.5
0.3007832 0.03992521 0.5
0.2525495 0.1682752 0.5
-0.2640163 -0.1496713 0.5
0.2989924 0.05207451 0.5
-0.2076739 0.2213517 0.5
-0.2214598 0.2075682 0.5
0.2986417 -0.05494998 0.5
0.2366274 -0.1903619 0.5
0.2929067 -0.08059915 0.5
-0.236397 -0.1908149 0.5
0.3018525 0.0346479 0.5
0.1532234 0.2623744 0.5
-0.1800335 -0.2447662 0.5
0.2957294 -0.07002573 0.5
0.2988024 0.05551461 0.5
0.2983323 -0.05834822 0.5
-0.152818 0.2627929 0.5
-0.1250315 0.2772011 0.5
0.2972569 0.06414466 0.5
0.125665 0.276926 0.5
0.301083 -0.04293755 0.5
0.3010198 0.04342555 0.5
0.2962103 0.06947269 0.5
0.09841648 -0.2879764 0.5
0.294223 0.07793971 0.5
0.2980565 -0.06173455 0.5
0.2652332 -0.1493391 0.5
0.3044292 0.001932541 0.5
0.3044611 -0.001459641 0.5
0.2987424 0.05895348 0.5
0.02807443 0.3032124 0.5
-0.02719577 0.3033205 0.5
-0.3031565 0.02916542 0.5
0.3010168 -0.0463898 0.5
-0.09767532 -0.2885575 0.5
0.3010185 0.04689471 0.5
-0.3036242 -0.02530178 0.5
0.08479845 0.2926498 0.5
-0.02741298 -0.3034696 0.5
-0.08399291 0.2929091 0.5
0.3047017 0.005414535 0.5
0.3039412 0.02263121 0.5
0.3047472 -0.00493818 0.5
-0.2926756 0.08509577 0.5
0.01433162 0.3044614 0.5
0.3039956 -0.02215019 0.5
-0.01344088 0.3045167 0.5
0.3042148 0.01919748 0.5
0.3037058 0.02606637 0.5
0.3037588 -0.02558559 0.5
0.3042714 -0.01871666 0.5
-0.3044557 0.01563854 0.5
0.2978293 -0.0651196 0.5
-0.01352443 -0.3045709 0.5
0.3044839 0.01576374 0.5
-0.2938007 -0.08149584 0.5
-0.2792591 -0.1224388 0.5
-0.3046995 -0.01172522 0.5
0.304542 -0.01528325 0.5
0.3008279 -0.04982446 0.5
0.3047968 0.008879285 0.5
0.3047019 0.01232639 0.5
-0.04074889 0.3022311 0.5
0.3048523 -0.008400618 0.5
0.04162377 0.3021173 0.5
0.304757 -0.01184632 0.5
0.303607 -0.02902292 0.5
0.01443052 -0.3046524 0.5
0.3035671 0.02950332 0.5
0.300842 0.05034246 0.5
0.02832242 -0.3037221 0.5
-0.3025808 -0.03866214 0.5
-0.0411901 -0.3022566 0.5
0.0004559037 -0.3050502 0.5
0.000443659 0.3050563 0.5
-0.3020817 0.04251246 0.5
-0.1939983 0.2355134 0.5
-0.3051255 0.001945441 0.5
-0.2356676 0.1939422 0.5
0.3005352 -0.05323745 0.5
0.2976822 0.06768914 0.5
-0.278157 0.1258241 0.5
0.042157 -0.3023863 0.5
0.3035807 -0.03246631 0.5
0.2933683 0.08459209 0.5
[...]
POINT_DATA 3883
FIELD attributes 1
p 1 3883 float
-12.80634 -12.68672 -8.491168 -5.452479 -8.248043 -5.585445 -8.132334 -8.290018 -5.497254 -5.66747
-7.989995 -8.438922 -5.569673 -5.86081 -7.830573 -8.790806 -5.411912 -6.07535 -13.25945 -7.753077
-6.239316 -7.684871 -5.657338 -9.447562 -9.255217 -5.387164 -5.616527 -9.075722 -8.332684 -6.632679
-7.233388 -6.34411 -5.362926 -7.599405 -5.88036 -5.50336 -8.588081 -6.173533 -13.77168 -7.55958
-5.439794 -5.961028 -8.674106 -8.643942 -5.451193 -14.00646 -9.151262 -6.829911 -7.197616 -13.05323
-14.86345 -6.333838 -5.40646 -12.71498 -7.38224 -8.27553 -5.715813 -7.973919 -13.77447 -8.010788
-9.709447 -6.182888 -9.282682 -5.222271 -5.387394 -6.522945 -5.735765 -7.360524 -6.360059 -13.59535
-5.829865 -7.287822 -5.560475 -13.13934 -5.573202 -15.03763 -9.073509 -15.36505 -6.50788 -7.461817
-10.43356 -14.72359 -8.194539 -6.436755 -14.78961 -7.112589 -13.08146 -14.25686 -13.87024 -11.03557
-9.187206 -8.151734 -8.540861 -9.161985 -13.71574 -5.47857 -12.78119 -12.08321 -14.78426 -12.75981
-6.983225 -7.033155 -14.55329 -7.862636 -7.114055 -14.65071 -12.56292 -15.07718 -11.84683 -14.92287
-14.78446 -14.37649 -14.89722 -5.453485 -8.987587 -8.32631 -5.623425 -14.63771 -5.712489 -5.688497
-8.067581 -5.504807 -9.237954 -10.34001 -6.88315 -7.200847 -7.911414 -14.64278 -13.75905 -8.804316
-6.726928 -11.49574 -14.35098 -9.062873 -13.07416 -13.02174 -12.03816 -5.339385 -5.880202 -14.90522
-13.80225 -6.009603 -6.314971 -6.076025 -14.99315 -9.467522 -6.776375 -9.238867 -7.749951 -12.85355
-12.79921 -9.219215 -5.549343 -8.372367 -8.194537 -13.20338 -14.51682 -15.09809 -10.79187 -9.998998
-22.18194 -7.239706 -13.7285 -14.04107 -9.244054 -6.18961 -6.141228 -13.02377 -8.124238 -5.389518
-7.663111 -5.379799 -7.620232 -7.583549 -5.387261 -6.205885 -7.499586 -6.685945 -5.360516 -8.299232
-8.288892 -5.574062 -6.824422 -9.707285 -6.458466 -7.268465 -5.515591 -6.270289 -7.305792 -6.314251
-4.934527 -11.26497 -14.58044 -8.692941 -5.293606 -8.083897 -5.725421 -13.27207 -11.32255 -5.721437
0.7100292 -8.0108 -5.903967 -7.847043 -7.13555 -5.3873 -8.115521 -12.6838 -5.301113 -6.092006
-5.624139 -8.258915 -5.467004 -7.687858 -9.26054 -5.892964 -13.00798 -6.529921 -6.18714 -7.019623
-7.562818 -29.30438 -8.322017 -6.342119 -5.044563 -15.32229 -7.378145 -6.374039 -7.273477 -8.387788
-5.469284 -6.6704 -9.168223 -4.614028 -9.079647 -7.311301 -4.734909 -9.916577 -5.533896 -6.691786
-14.40374 -9.122175 -7.311448 -13.6634 -8.496592 -8.249547 -11.0936 -5.311897 -10.17764 -9.338432
-6.750001 -12.82894 -6.28119 -12.9423 -9.28709 -8.196625 -4.889649 -5.566194 -8.223329 -6.374429
-9.638146 -8.485466 -13.1058 -6.764832 -6.764975 -14.82046 -12.9085 -15.12742 -8.940851 -4.998065
-5.411804 -9.142544 -13.78118 -11.26009 -13.41445 -13.50011 -8.935575 -5.840516 -7.975244 -6.055435
-7.755445 -5.720211 -6.799781 -14.04882 -5.721957 -8.097764 -6.032087 -6.162502 -13.17248 -5.460351
-7.628224 -6.332126 -8.678846 -6.24112 -7.267739 -8.990644 -7.505758 -6.455407 -13.23415 -7.244657
-14.23829 -8.703543 -5.611024 -19.85932 -9.156579 -8.462279 -5.644017 -9.028242 -12.28458 -3.788187
-5.622391 -5.754338 -3.972902 -12.92681 -13.26582 -13.55342 -5.36037 -8.048905 -14.79834 -11.36129
-4.541005 -11.48248 -5.366562 -5.386907 -6.387521 -7.290657 -8.886642 -5.361247 -8.672964 -14.16968
-9.058139 6.496381 -12.68825 -6.735831 -6.783458 -4.003303 -6.181694 -5.679558 -7.866045 -8.388008
-15.39016 -5.296038 -9.198288 -6.997101 -14.78667 -5.487265 -6.505889 -5.889056 -7.037856 -7.134754
-6.183876 -7.828849 -5.792672 -6.140079 -5.67523 -8.002727 -7.694193 -8.083462 -15.29641 -14.79234
-6.201551 -10.59257 -11.73314 -8.946595 -7.556881 -8.219719 -6.412055 -6.370125 -5.635827 -7.249818
-6.294309 -7.367916 -8.225003 -14.96811 -5.582841 -4.903592 -14.60103 -9.309608 -15.28384 -15.01801
-5.967719 -7.644771 -5.524837 -8.66151 -5.872797 -8.01986 -8.599425 -6.610465 -14.67358 -8.352788
-9.043308 -9.073177 -2.730133 -5.377336 -13.92452 -4.449385 -8.747165 -8.780182 -12.87197 -14.87859
-12.73317 -13.07896 -5.458681 -5.720567 -13.7459 -4.195807 -14.43783 -8.125306 -8.349773 -12.71855
-13.83835 -14.76315 -13.69816 -6.756318 -7.235525 -8.671339 -14.55329 -6.280108 -5.418041 -9.050325
-6.670969 -5.7443 -9.368183 -6.456063 -6.862187 -5.597888 -9.579017 -6.391411 -6.927839 -6.297288
-6.159503 -7.211595 -7.752399 -5.511827 -6.178827 -7.179615 -7.838478 -5.399694 -7.556028 -7.642556
-6.221854 -6.562309 -3.20469 -7.450265 -7.275282 -6.030343 -5.618309 -8.096752 -14.57515 -10.99953
-5.493221 -13.08658 -14.79555 -7.430453 -8.003286 -8.902326 -5.378193 -5.387667 -14.99669 -5.921111
-11.96174 -9.192127 -12.70773 -14.31756 -14.16299 -12.69349 -9.664325 -5.51552 -6.778 -8.511514
-5.158174 -10.12943 -7.222098 -11.24559 -5.033622 -9.007974 -12.89883 -5.495888 -12.66217 -8.099255
-12.90109 -6.679702 -6.681055 -6.816681 -9.015221 -8.855893 -5.4671 -6.456031 -7.040774 -9.029393
-6.426033 -6.190235 -12.63474 -5.952427 -7.754987 -6.250057 -7.665241 -7.24416 -6.409668 -7.549421
-7.376966 -5.695128 -7.958984 -13.64637 -7.865962 -8.099933 -5.543462 -5.99132 -6.370347 -9.291824
-14.53547 -12.75511 -14.76071 -13.62988 -5.308606 -5.246763 -8.14219 -12.20302 -8.955204 -8.819912
-12.72132 -5.438489 -8.563228 -12.54827 -8.454424 -7.100619 -5.436126 -8.04733 -12.72066 -13.08938
-13.09612 -13.4529 -5.433905 -10.82865 -8.417322 -8.374786 -14.58145 -5.540479 -13.82691 -6.703972
-8.841642 -6.124704 -9.884433 -13.08614 -2.767103 -5.734615 -14.59093 -7.969089 -13.05956 -6.469114
-11.02879 -7.27774 -14.75262 -9.048181 -13.01043 -13.55621 -14.65543 -6.788075 -8.939588 -14.54063
-13.64812 -5.85668 -6.01938 -14.69259 -5.435138 -14.12867 -6.202499 -5.657497 -8.673107 -8.31216
-13.08428 -12.9191 -7.74413 -13.56933 -9.164142 -14.41603 -8.999432 -13.46357 -13.60634 -14.49832
-5.789851 -8.524962 -14.10892 -8.634873 -13.04008 -13.98791 -6.051197 -13.8793 -14.62589 -12.65452
-5.718491 -12.47244 -8.689897 -8.89583 -13.22366 -7.29232 -5.401398 -6.973177 -14.80458 -5.466763
-8.996145 -14.34106 -8.4011 -7.042831 -14.79225 -12.26618 -6.83578 -10.54292 -5.591324 -6.388016
-13.24144 -5.825531 -7.24617 -6.449234 -6.178039 -11.59487 -7.914652 -7.56681 -6.250122 -8.821315
-4.838747 -8.333321 -5.650107 -7.641047 -9.09741 -5.764306 -12.90786 -9.867307 -13.28019 -6.08396
-8.812279 -14.26488 -13.12482 -5.614594 -6.315293 -12.89975 -8.246761 -9.397494 -5.404038 -14.25713
-12.70598 -7.565209 -12.0516 -7.839314 -5.185978 -14.60192 -12.71968 -5.411858 -9.486973 -3.732148
-8.097468 -14.18847 -12.70409 -8.971854 -8.079719 -5.620717 -10.8189 -9.221792 -5.557273 -6.561793
-12.68558 -9.015936 -8.687225 -5.887643 -5.942889 -13.6058 -12.61248 -14.45611 -6.025224 -7.040466
-8.103999 -5.438185 -7.68514 -12.74642 -13.38125 -6.5063 -12.8561 -7.002055 -13.63647 -6.440934
-7.210574 -7.465027 -5.396691 -6.258162 -6.458389 -9.070269 -7.688903 -13.28001 -14.2484 -5.814592
-6.87227 -6.748714 -5.562874 -5.493512 -6.49314 -10.76971 -13.83618 -9.675266 -7.974815 -14.53497
-14.5201 -7.388887 -5.085236 -2.525167 -10.19296 -10.605 -14.53158 -7.127844 -5.529275 -8.775949
-11.19879 -8.30405 -9.066466 -14.05184 -12.59704 -5.945353 -12.68662 -5.636856 -8.750669 -7.512054
-11.75444 -5.406459 -4.371784 -14.38218 -14.39057 -8.7669 -14.36744 -14.35056 -6.054349 -5.793627
-5.8663 -4.31404 -7.970964 -12.70119 -6.066615 -14.19015 -8.058938 -5.66969 -8.425854 -8.641241
-6.662163 -12.73203 -7.860049 -8.877922 -9.100262 -8.950955 -5.488086 -14.53031 -6.580947 -12.66426
-14.16417 -6.358385 -9.003841 -8.962322 -13.3701 -14.37792 -15.49236 -14.14155 -5.976342 -5.643828
-6.260244 -7.769641 -9.17777 -7.599368 -8.826395 -3.367054 -8.734861 -9.627599 -14.45978 -12.7375
-5.429044 -12.32682 -14.03528 -7.865308 -7.066527 -6.907864 -5.42684 -5.464055 -13.60521 -12.44539
-12.6569 -6.640502 -8.925822 -5.518234 -1.085887 -12.70999 -14.465 -10.37518 -6.962553 -13.01204
-10.4039 -13.04729 -14.34928 -13.46181 -13.8723 -12.99118 -10.91711 -9.965005 -13.27957 -8.319327
-7.201797 -13.59196 -7.234905 -8.39959 -12.9548 -6.009742 -5.437604 -5.435078 -13.17531 -13.0668
-8.900747 -6.4195 -8.243819 -12.893 -13.70622 -8.99232 -5.580294 -11.44586 -6.309378 -6.749475
-13.41088 -9.515083 -13.50324 -12.49988 -10.4665 -14.19728 -8.47579 -13.1075 -14.46774 -12.87033
-13.77236 -12.16806 -8.812066 -5.455548 -7.697062 -14.33334 -12.59238 -13.10796 -13.0297 -13.93551
-8.161548 -9.304319 -5.709696 -12.92299 -12.88168 -5.407048 -6.204401 -5.672633 -13.79421 -5.7611
-7.637318 -6.763527 -8.514336 -13.31328 -6.142218 -8.881665 -8.07956 -12.72135 -10.36909 -5.627047
-8.127827 -13.12921 -5.842685 -3.470131 -12.62166 -12.76929 -12.80422 -6.503552 -13.90335 -6.920531
-5.434474 -7.631956 -11.88243 -9.063586 -14.32801 -14.31127 -14.31964 -6.775074 -5.483279 -5.586529
-14.23409 -5.844629 -9.055773 -5.967805 -12.48099 -6.060727 -8.517028 -5.738514 -5.422077 -13.66456
-7.155971 -10.12695 -5.426101 -14.35643 -5.90834 -8.257291 -8.545022 -10.68238 -6.549991 -5.536371
-7.969656 -14.33435 -8.806752 -14.13677 -10.19446 -13.45487 -14.51553 -7.0534 -8.733242 -7.986017
-6.811025 -6.153708 -5.670785 -6.214668 -11.16246 -13.83919 -8.838244 -13.18568 -12.70134 -14.35678
-7.73635 -9.067809 -14.3592 -5.531771 -14.01979 -12.52458 -14.05308 -12.64143 -11.0998 -5.930902
-12.47384 -8.614725 -7.534667 -5.61988 -6.270483 -7.872371 -11.55162 -5.387265 -6.625707 -9.353195
-7.517906 -12.2435 5.59989 -12.59967 -8.849209 -14.28665 -13.39188 -5.526572 -12.69316 -8.866551
-13.92935 -14.1105 -6.298583 -13.2463 -8.867952 -13.92755 -6.881141 -5.4676 -8.702058 -12.24621
-7.039901 -6.567467 -5.505784 -13.47962 -5.484166 -7.748501 -10.47107 -13.71534 -6.911293 -10.77695
-12.60454 -14.19287 -6.775691 -6.253915 -9.60586 -6.412706 -5.570997 -7.731839 -14.00597 -7.316267
-5.731778 -14.25448 -5.409539 -12.26386 -12.88793 -12.92295 -7.342277 -6.351529 -13.26007 -6.050122
-13.80914 -11.36562 -8.709082 -12.87865 -12.95247 -13.38142 -6.742108 -8.900286 -8.615579 -9.39336
-12.96815 -8.250773 -14.23314 -12.82146 -14.3069 -13.45859 -8.352199 -14.00725 -14.30479 -13.0169
-6.655983 -14.19126 -7.659536 -11.97737 -11.73265 -14.09101 -12.88572 -8.377831 -12.78989 -8.508571
-8.033632 -8.605788 -14.3384 -12.98907 -8.081009 -5.460106 -14.10087 -7.921895 -9.032657 -10.06365
-12.76333 -6.169216 -12.75873 -5.686545 -13.5669 -8.715056 -7.173647 -5.677173 -12.63369 -5.797655
-6.878468 -6.969194 -12.54944 -5.46943 -5.464379 -2.838212 -5.653617 -8.05264 -6.486307 -14.10993
-12.9932 -9.112527 -6.519849 -5.874683 -5.528483 -7.562109 -10.63244 -8.9448 -13.91144 -12.74401
-7.48532 -14.17334 -9.729373 -13.87532 -11.78105 -13.58253 -13.6702 -13.34411 -10.59462 -5.589694
-5.48229 -11.22747 -6.79298 -8.439265 -5.908191 -14.0554 -6.204419 -7.934909 -8.721083 -12.29739
-12.07844 -8.473062 -13.05114 -12.67115 -3.757978 -5.485436 -9.607888 -14.1054 -12.5533 -13.68476
-10.15022 -13.83361 -8.483274 -7.412954 -6.595201 -11.55254 -11.25991 -5.414255 -5.502501 -6.817977
-5.502072 -6.673518 -8.770327 -5.499879 -5.453511 -7.081371 -14.06559 -14.10687 -5.941942 -8.526557
-14.04824 -14.09681 -13.53545 -9.297741 -13.99203 -5.992462 -7.077918 -10.88882 -14.07585 -5.753668
-8.264501 -8.491377 -13.92468 -13.94103 -12.52544 -7.71803 -13.62884 -8.73153 -7.969141 -11.94846
-6.129702 -14.10048 -12.62319 -13.82339 -6.3755 -8.983354 -7.723206 -6.687511 -11.23488 -11.99615
-5.503616 -12.47509 -8.755837 -12.75729 -13.14855 -13.81454 -12.8008 -12.76879 -12.79221 -13.08616
-7.707437 -9.115484 -12.86647 -5.643953 -8.188374 -12.63921 -13.95497 -6.772982 -9.302981 -12.68378
-5.489014 -8.008077 -13.75259 -13.21913 -7.097869 -7.529452 -6.139568 -12.8386 -10.3097 -8.555741
-13.33036 -8.735337 -12.61985 -5.762204 -13.49906 -6.495065 -5.869027 -8.271961 -7.117271 -7.923606
-7.526141 -5.662023 -12.3582 -12.88535 -5.889608 -11.06956 -11.71488 -5.602826 -12.63815 -6.353412
-11.94073 -7.37628 -13.33968 -13.8983 -9.456081 -5.472754 -5.633405 -13.59141 -8.561667 -9.45646
-12.49824 -5.540226 -8.241085 -12.31042 -8.361035 -6.892953 -6.561934 -5.498377 -13.12851 -10.04057
-11.64247 -8.839765 -7.689723 -12.03826 -6.239692 -5.550442 -8.586112 -13.79637 -6.841129 -13.47471
-13.69338 -13.35466 -7.26812 -8.661138 -12.15648 -2.567108 -5.353485 -11.30591 -8.325396 -12.65947
-6.532636 -7.549661 -12.691 -6.981228 -10.79869 -11.72484 -12.62543 -9.790239 -13.32133 -10.57064
-12.36946 -13.65753 -13.66601 -5.839589 -12.75693 -6.447971 -12.56685 -5.99574 -13.50209 -13.09045
-8.238812 -13.41132 -5.715187 -5.821548 -8.481744 -5.685324 -13.73702 -12.98093 -8.608176 -8.405608
-5.630853 -7.662883 -5.94156 -5.498349 -10.53874 -6.171763 -12.51135 -12.79998 -7.323546 -13.40386
-13.63331 -9.129013 -11.40088 -7.005296 -5.465723 -5.486281 -7.613758 -6.031781 -11.7302 -5.600756
-6.538663 -13.55923 -6.682976 -12.44202 -6.610412 -7.522935 -8.446376 -6.712274 -13.48883 -14.53742
-8.355484 -12.45299 -5.494196 -12.8429 -10.20216 -12.48221 -13.06337 -12.6557 -6.360873 -5.719162
-6.175135 -13.21725 -12.27499 -9.198272 -12.79427 -7.076928 -7.961067 -7.877757 -9.113832 -10.92093
-7.957654 -8.092619 -12.02704 -5.542854 -7.818207 -5.53513 -12.96255 -5.536039 -12.39203 -11.00238
-13.5233 -12.88103 -13.47721 -8.658728 -7.130811 -8.23917 -13.42208 -6.547287 -6.233181 -6.775141
-13.33449 -5.922208 -7.617857 -13.48221 -11.82423 -12.67642 -5.689459 -8.3081 -5.939839 -12.99505
-7.898885 -12.52945 -13.30198 -6.551641 -8.770598 -5.482142 -6.880433 -9.9238 -8.220073 -13.05926
-5.653614 -13.40107 -10.5257 -7.319778 -12.33323 -11.48039 -12.46517 -7.583841 -12.51641 -12.43449
-6.399714 -6.263092 -12.8563 -13.16418 -8.462077 -6.903635 -5.537573 -12.92195 -12.6173 -12.45745
-9.157069 -9.036728 -5.714992 -5.713226 -8.222479 -13.26752 -5.686919 -6.972342 -5.555817 -9.471579
-5.925966 -7.191954 -13.28683 -12.35088 -12.5645 -11.80805 -11.07488 -7.340685 -5.575897 -6.712922
-12.24764 -6.069208 -6.554232 -6.292696 -10.00518 -13.0083 -8.234851 -12.97229 -10.8123 -9.393883
-12.28477 -5.443788 -13.40147 -12.53991 -13.18606 -5.80768 -13.12779 -12.20548 -5.926829 -12.26724
-6.106708 -6.986277 -8.177986 -5.539903 -11.95379 -10.76669 -13.34013 -5.689407 -12.34086 -5.561175
-7.835765 -13.12832 -5.504798 -6.08147 -7.899317 -11.65059 -7.076417 -13.17212 -7.690077 -12.26452
-12.5656 -8.286029 -12.57038 -6.676637 -12.29007 -6.118312 -11.02447 -6.669243 -8.042769 -5.612948
-12.96679 -6.507449 -7.644789 -11.50839 -6.01017 -9.75954 -12.7942 -7.972566 -6.869002 -12.74373
-6.239154 -10.60823 -12.86377 -12.32354 -7.379257 -11.29788 -5.576988 -6.340636 -9.45611 -12.25843
-12.18855 -5.567159 -8.205334 -12.63393 -13.09755 -12.81456 -6.833787 -12.22672 -12.35709 -8.100641
-13.11311 -6.63834 -5.828225 -13.02033 -5.575952 -5.709582 -13.01972 -5.980314 -6.433605 -6.590324
-10.94639 -12.30156 -10.90721 -12.97148 -5.687123 -12.12223 -10.17886 -12.74873 -6.530186 -7.742818
-6.023764 -12.9771 -8.667285 -12.48139 -8.075829 -5.543163 -12.11246 -5.562598 -12.33651 -7.02418
-12.80776 -10.46167 -6.462625 -12.62536 -11.81932 -11.68407 -12.06901 -7.572624 -12.81461 -12.06887
-9.059526 -6.551425 -6.645299 -11.49882 -12.05692 -7.8331 -7.946137 -12.43855 -12.21804 -7.389407
-6.164836 -7.018984 -12.67758 -7.426023 -8.897277 -8.484341 -12.36396 -10.30941 -7.080155 -5.812941
-5.579902 -7.964423 -12.08974 -6.314197 -12.71396 -11.09549 -6.023896 -12.02955 -12.06597 -11.79212
-13.30749 -5.636968 -6.721768 -5.774627 -7.085804 -12.46866 -10.9521 -6.350038 -5.939278 -11.94838
-6.466614 -12.08275 -7.680086 -5.678802 -7.755647 -5.002627 -8.895144 -12.38364 -6.863924 -10.50183
-6.020829 -11.46464 -12.60031 -6.29989 -11.3429 -5.480057 -9.808588 -11.88698 -12.09545 -10.87992
-12.4625 -11.83939 -6.861331 -8.108077 -5.574199 -12.46871 -11.01317 -6.449013 -7.514469 -6.304444
-7.263793 -8.570791 -12.43711 -12.03167 -5.577023 -12.30766 -10.65839 -11.79759 -12.0848 -5.900354
-12.29012 -5.748715 -7.094296 -6.490139 -6.594689 -9.128879 -11.93452 -6.127271 -7.607609 -5.374704
-7.831517 -7.767973 -7.449685 -5.595356 -9.909523 -5.652579 -7.185798 -7.687755 -12.02066 -2.012511
-12.2212 -12.05509 -12.19049 -10.84048 -11.75617 -11.67574 -6.975729 -5.818322 -5.940721 -5.765451
-11.62765 -12.09552 -11.64862 -11.93788 -6.740789 -6.342839 -7.394702 -12.04361 -6.095616 -9.536858
-5.644408 -5.652425 -11.11442 -10.01179 -6.695034 -11.57408 -11.6895 -5.835209 -11.2661 -12.94327
-10.65008 -5.929369 -7.361034 -6.279295 -5.709862 -11.90386 -11.40771 -4.88102 -11.78555 -11.58233
-10.46834 -11.70599 -4.708585 -6.568564 -6.2551 -7.83484 -12.05673 -6.459591 -5.689355 -11.76576
-6.73749 -5.676847 -11.63601 -7.822197 -7.84007 -7.750427 -7.732728 -9.96557 -7.349174 -11.41331
-11.54766 -11.60931 -11.84484 -6.326188 -5.908658 -11.77862 -11.323 -11.23193 -5.792637 -5.79205
-11.32484 -7.005917 -5.971201 -5.783617 -7.639541 -11.30636 -5.718176 -8.472385 -6.087495 -8.723695
-6.141695 -5.735302 -6.772499 -11.57135 -11.32015 -10.39456 -11.40698 -10.76597 -8.037756 -11.63086
-6.257559 -11.63647 -5.734892 -11.13445 -6.248685 -11.62365 -11.40963 -6.762636 -11.34175 -10.01311
-5.72067 -11.43283 -7.041581 -10.72074 -7.408309 -11.40708 -11.20743 -11.26792 -7.433318 -6.466074
-11.26888 -0.4526196 -6.899104 -6.524868 -5.737324 -5.887105 -10.93134 -6.00994 -9.318833 -10.83232
-6.102972 -12.83291 -11.20699 -10.0305 -7.359132 -10.92654 -7.840991 -7.977308 -10.7859 -5.845534
-6.72723 -6.075318 -10.84741 -10.95275 -11.03519 -6.795953 -5.766813 -11.10316 -8.68723 -6.04444
-5.84988 -6.026436 -10.42332 -6.254914 -10.73082 -5.793369 -6.181134 -9.857799 -10.18694 -6.470621
-6.139434 -9.419208 -10.83264 -10.20448 -7.032083 -5.94056 -5.748314 -7.788109 -6.397958 -5.812001
-6.96253 -8.540504 -10.08743 -6.142526 -9.025398 -10.43446 -10.29572 -10.68526 -9.583211 -10.20829
-6.956884 -10.46452 -10.54442 -10.16553 -5.75742 -10.60981 -10.46854 -7.656246 -6.519421 -5.939997
-6.082224 -10.19276 -9.927013 -7.197271 -5.840176 -6.210541 -9.431487 -9.649187 -10.32571 -9.214186
-5.794743 -10.18507 -7.2362 -8.078625 -10.41687 -7.131342 -6.96323 -10.22602 -9.960484 -6.832417
-7.987241 -9.722479 -9.749443 -5.889953 -6.077914 -10.08533 -6.526821 -9.631347 -10.03627 -9.682184
-9.604418 -5.98927 -5.756851 -6.081076 -10.12659 -5.891691 -9.921727 -6.305183 -9.915539 -10.01585
-9.05036 -7.228886 -7.799563 -9.196533 -7.228775 -7.39562 -9.698482 -8.606017 -7.58288 -9.861117
-9.34604 -9.590632 -6.873294 -9.277818 -6.007819 -6.050056 -8.692972 -5.777083 -6.213668 -5.835406
-6.250848 -9.619853 -8.260453 -6.943335 -7.400091 -6.858005 -9.626519 -7.199905 -6.429483 -5.762695
-8.545071 -9.078332 -6.505145 -9.462348 -8.452652 -8.59254 -8.788039 -8.46469 -2.317057 -8.957952
-9.109899 -6.019547 -6.97651 -8.90647 -5.885824 -11.90335 -6.158827 -9.252222 -8.687792 -9.379113
-9.215933 -7.313498 -7.005515 -5.566322 -7.747527 -6.922495 -8.893968 -8.878413 -9.249973 -7.587933
-7.786992 -6.173396 -5.500743 -7.311822 -8.459625 -8.457845 -8.029795 -6.03829 -9.514978 -8.559259
-8.676333 -8.625268 -5.701988 -8.211249 -7.917027 -8.872727 -6.398072 -8.841204 -8.470901 -5.843874
-8.184737 -8.693848 -5.596405 -7.336709 -8.334207 -8.756259 -8.093556 -6.251216 -8.397304 -8.518356
-7.241529 -6.770831 -8.77468 -8.23205 -8.42306 -6.664608 -8.315647 -8.562864 -7.826591 -5.520511
-8.074415 -6.102061 -5.852407 -6.117746 -8.530835 -8.281202 -6.409485 -8.422799 -8.391026 -7.070214
-5.598187 -7.400621 -8.137505 -7.819323 -8.107751 -7.565824 -8.072905 -7.664936 -5.598204 -8.421082
-8.101368 -5.520528 -6.695479 -5.819195 -8.111979 -7.614028 -8.015908 -5.559379 -7.143519 -6.117862
-8.199135 -7.999275 -8.19287 -5.598229 -8.339628 -7.863159 -6.630753 -6.526712 -8.249934 -8.333047
-6.01771 -6.231096 -7.347368 -8.202645 -6.97926 -8.215552 -5.807991 -7.185719 -6.442328 -7.594333
-7.143643 -8.155513 -7.798641 -8.187431 -7.687722 -6.017738 -7.952281 -8.320795 -6.70254 -8.173244
-6.017752 -7.895989 -7.51988 -8.244761 -8.081426 -8.216059 -7.997831 -8.178999 -7.83387 -7.21396
-8.129511 -7.538174 -8.178243 -7.897655 -7.628508 -8.412001 -6.193783 -6.936376 -7.89567 -6.369773