# vtk DataFile Version 2.0
sampleSurface
ASCII
DATASET POLYDATA
POINTS 3883 double
0.2553769 -0.1534114 0.5
0.2609767 -0.1437021 0.5
0.2113502 0.2102498 0.5
0.2965045 0.03261345 0.5
0.2965621 -0.03213245 0.5
0.2968473 0.02940947 0.5
0.2969056 -0.02892767 0.5
0.2962361 -0.03517393 0.5
0.2961794 0.03565238 0.5
0.2972069 0.02604847 0.5
0.2972659 -0.02556673 0.5
0.295706 -0.0401199 0.5
0.2956499 0.04060139 0.5
0.2975731 0.02262584 0.5
0.2976327 -0.02214452 0.5
0.2953818 -0.04314411 0.5
0.2953261 0.04362778 0.5
0.29794 0.01919681 0.5
0.1846834 -0.2345921 0.5
-0.2964366 0.03562373 0.5
0.03462962 0.2965671 0.5
0.2980002 -0.01871577 0.5
-0.03374855 0.2966828 0.5
-0.2952759 -0.04446637 0.5
-0.2969446 -0.03175369 0.5
-0.1196093 0.2736575 0.5
-0.04664712 0.2949897 0.5
0.2736465 0.1196358 0.5
0.2950273 -0.04645222 0.5
-0.2735194 0.1199437 0.5
0.1202822 0.2733796 0.5
0.04752182 0.2948749 0.5
0.2949716 0.04694145 0.5
-0.2947714 0.04831007 0.5
-0.2316218 0.1886146 0.5
-0.1886216 0.2316164 0.5
0.1974746 0.2241254 0.5
0.2983064 0.01577212 0.5
0.1149686 -0.2757276 0.5
0.2983673 -0.01529103 0.5
-0.1736335 0.2431407 0.5
-0.2431889 0.1735709 0.5
0.2253024 0.1962976 0.5
0.2946629 -0.04985108 0.5
0.2946065 0.05035363 0.5
0.1038238 -0.2802681 0.5
0.2810402 0.1017318 0.5
-0.2810757 0.1016458 0.5
0.1016365 0.2810796 0.5
0.2455597 -0.1704335 0.5
-0.07263649 -0.2899607 0.5
0.2986708 0.01236555 0.5
-0.1008963 0.2813852 0.5
0.2708072 -0.126657 0.5
0.2987324 -0.01188419 0.5
0.2965218 -0.03825887 0.5
0.2964664 0.0387396 0.5
-0.2981807 0.02233628 0.5
-0.2134762 -0.2094238 0.5
0.2942976 -0.05325961 0.5
-0.2936882 -0.056562 0.5
0.02114477 0.2983371 0.5
0.2693522 0.1300345 0.5
0.2942404 0.05377539 0.5
-0.130376 0.2692112 0.5
-0.2692095 0.1303802 0.5
-0.02026121 0.2984531 0.5
0.1309795 0.268962 0.5
0.2990247 0.009057977 0.5
0.1691485 -0.2467837 0.5
-0.2249888 0.1972412 0.5
0.299087 -0.00857646 0.5
-0.1973082 0.2249373 0.5
0.2000575 -0.2225269 0.5
-0.05893014 0.2933774 0.5
-0.03428503 -0.2972739 0.5
-0.2986896 -0.01845963 0.5
-0.09214694 -0.2847423 0.5
0.05979183 0.2932643 0.5
-0.2931908 0.0603518 0.5
0.2939322 -0.05666872 0.5
-0.06061354 -0.2931764 0.5
0.2938804 0.05714057 0.5
0.2993464 0.006050824 0.5
-0.02046715 -0.2987112 0.5
0.2994092 -0.005570185 0.5
0.2273406 -0.1949241 0.5
0.09301223 -0.2846728 0.5
-0.1996443 -0.2232557 0.5
-0.2828855 -0.09847279 0.5
0.2441375 0.173546 0.5
0.1742993 0.2436051 0.5
0.2966631 -0.04148998 0.5
0.2851675 0.09173746 0.5
0.1334004 -0.2682183 0.5
0.2966086 0.0419733 0.5
0.2828437 -0.09869274 0.5
-0.2658889 -0.1380265 0.5
0.02138066 -0.2988646 0.5
-0.2459316 -0.1711878 0.5
0.2935643 -0.06010087 0.5
-0.2856264 0.09062617 0.5
0.04873792 -0.2956719 0.5
0.2935363 0.06035678 0.5
0.09041856 0.2857122 0.5
-0.1597755 -0.2535557 0.5
-0.2562957 -0.1553537 0.5
-0.04784141 -0.2958638 0.5
-0.2711763 -0.127629 0.5
-0.114601 -0.2769549 0.5
-0.1427578 -0.2635574 0.5
0.06158644 -0.2933439 0.5
-0.1327359 -0.2687571 0.5
-0.08963896 0.2860341 0.5
0.2329478 0.1886522 0.5
0.1831327 0.2373624 0.5
0.2985137 0.02777041 0.5
0.0352344 -0.2977259 0.5
0.2988141 0.02434842 0.5
-0.2120404 0.2119596 0.5
0.2985708 -0.02728861 0.5
-0.07847789 0.2893647 0.5
0.2891782 0.07917348 0.5
-0.290029 -0.07599943 0.5
0.07930643 0.2891426 0.5
-0.2890502 0.07965099 0.5
0.2988726 -0.0238669 0.5
-0.1690542 -0.2476288 0.5
0.1434936 -0.2632726 0.5
-0.2998 -0.004875469 0.5
0.2998365 0.00147065 0.5
-0.2759958 -0.1171813 0.5
0.07375661 -0.2906302 0.5
0.2964852 -0.04477005 0.5
0.2883721 -0.08218094 0.5
-0.2396836 -0.180185 0.5
0.2910039 -0.0723623 0.5
0.2964339 0.04525992 0.5
-0.006489622 0.2998 0.5
-0.006541264 -0.2998 0.5
-0.2273214 -0.1955786 0.5
0.2991545 0.02091586 0.5
-0.2607846 0.1480736 0.5
0.007382114 0.2998 0.5
0.007444088 -0.2998 0.5
0.260979 0.1477374 0.5
0.299899 -0.001000206 0.5
0.2914786 0.07059132 0.5
0.2992139 -0.02043469 0.5
0.2865328 -0.08858073 0.5
0.2762571 -0.1167471 0.5
0.2875755 0.08515303 0.5
0.2983071 0.03114408 0.5
-0.2998 0.008789005 0.5
0.298362 -0.03066256 0.5
0.2145512 -0.2095988 0.5
-0.1850254 -0.2361036 0.5
-0.1033985 -0.2815871 0.5
-0.2870422 -0.08714239 0.5
0.2921721 0.06800412 0.5
0.2923771 -0.06712061 0.5
0.2932108 0.06339898 0.5
0.1604772 -0.2534599 0.5
0.2931813 -0.06358235 0.5
0.2554292 0.1573386 0.5
-0.2552032 0.1577294 0.5
0.2995036 0.01748752 0.5
0.2400887 -0.1799133 0.5
0.158778 0.2545742 0.5
-0.1582802 0.2548849 0.5
0.1417024 0.2644674 0.5
-0.1412064 0.2647386 0.5
0.2995637 -0.01700648 0.5
0.2961937 -0.04814833 0.5
0.2961492 0.04864943 0.5
0.2998426 0.01406876 0.5
0.2999032 -0.01358776 0.5
0.3001902 0.004316958 0.5
0.2982413 0.03444486 0.5
0.2982967 -0.03396435 0.5
0.2976233 -0.03948278 0.5
0.29757 0.03996503 0.5
0.300252 -0.003840761 0.5
0.2958564 -0.05155363 0.5
0.3001422 0.0106859 0.5
0.3002032 -0.01020499 0.5
0.2958303 0.05207629 0.5
0.3003455 0.007407681 0.5
0.3004067 -0.006927946 0.5
0.2955051 -0.05496077 0.5
0.2955372 0.05550053 0.5
0.2932927 0.06638709 0.5
0.2951551 -0.0583719 0.5
0.2978209 -0.04297098 0.5
0.2977676 0.0434571 0.5
0.2986742 -0.03743159 0.5
0.2986228 0.03791616 0.5
0.2907609 -0.07838087 0.5
0.2953332 0.05888271 0.5
0.3000892 0.0260626 0.5
0.2948181 -0.06179976 0.5
0.3001462 -0.02558116 0.5
0.300387 0.0226288 0.5
0.3004453 -0.02214755 0.5
0.1133835 0.2791096 0.5
-0.1126876 0.2794013 0.5
0.2976814 -0.04641476 0.5
0.2679985 -0.1376504 0.5
0.2976405 0.04690978 0.5
0.300719 0.01919765 0.5
0.2998969 0.02949479 0.5
0.2999508 -0.02901338 0.5
-0.183287 0.2392068 0.5
0.3007782 -0.01871662 0.5
0.2932834 0.06950188 0.5
-0.2392999 0.183263 0.5
0.2526388 -0.1644165 0.5
0.3013878 0.0054294 0.5
0.3010494 0.01576838 0.5
0.3014478 -0.00495191 0.5
0.3011094 -0.01528744 0.5
0.2943873 -0.06528004 0.5
0.2973994 -0.04983944 0.5
0.30134 0.01233697 0.5
0.2973746 0.05035013 0.5
-0.08489963 -0.2894326 0.5
0.3014002 -0.01185614 0.5
0.3015043 0.008896898 0.5
0.3015648 -0.008416813 0.5
0.2999699 -0.03244495 0.5
0.2999194 0.03292617 0.5
-0.2796192 0.1134195 0.5
0.2922859 0.07496694 0.5
0.2952689 0.06219414 0.5
0.2797245 0.1132272 0.5
0.2970663 -0.05325097 0.5
0.2970986 0.05378873 0.5
-0.2940593 -0.06877011 0.5
-0.07120646 0.2934909 0.5
0.07204497 0.2933106 0.5
0.08585235 -0.2896204 0.5
0.2967271 -0.05665335 0.5
-0.2932707 0.07247335 0.5
0.1268079 -0.2742294 0.5
0.2071767 0.2199119 0.5
0.299338 -0.04121343 0.5
-0.2813526 -0.1102259 0.5
0.2992861 0.04169669 0.5
0.2944953 0.06775823 0.5
0.2403818 0.1832153 0.5
0.3022763 0.0002382947 0.5
-0.2530353 -0.1654718 0.5
0.2969147 0.05722716 0.5
0.2902291 -0.08490989 0.5
0.2911279 0.08179323 0.5
0.1687378 0.250964 0.5
0.2964093 -0.06004592 0.5
0.3002363 0.03638373 0.5
0.3002952 -0.0359 0.5
-0.2671835 0.1417408 0.5
0.2673651 0.141398 0.5
0.2212498 0.2062346 0.5
0.1950838 -0.2312422 0.5
0.3025298 0.003467315 0.5
0.3025802 -0.002993906 0.5
-0.1537677 -0.2606631 0.5
0.281873 -0.1102282 0.5
-0.1262744 -0.2750656 0.5
0.2994011 -0.04468466 0.5
0.2993628 0.04518275 0.5
-0.1685505 0.2515267 0.5
0.2896204 0.08830175 0.5
0.1544531 -0.2604372 0.5
0.2955904 0.06567893 0.5
0.1799324 -0.2436104 0.5
-0.2092261 -0.2189698 0.5
0.2961492 -0.06342473 0.5
0.3020305 0.02435223 0.5
0.3020862 -0.02387111 0.5
0.3023153 0.02091855 0.5
0.3023725 -0.02043742 0.5
0.296942 0.06067086 0.5
0.2992317 -0.04812505 0.5
-0.2230824 -0.2051604 0.5
0.3018149 0.02778601 0.5
0.301866 -0.02730421 0.5
-0.2519592 0.1684923 0.5
0.3026167 0.01748689 0.5
0.2099419 -0.2186697 0.5
0.2992191 0.04863181 0.5
0.3026752 -0.01700604 0.5
0.3030974 0.007153167 0.5
0.1932839 0.2336141 0.5
0.3028939 0.01405502 0.5
0.3031528 -0.006675854 0.5
0.2947558 0.07126605 0.5
0.3029521 -0.01357471 0.5
0.3030861 0.0106159 0.5
0.2236249 -0.2049092 0.5
0.3031439 -0.01013597 0.5
-0.1950238 -0.2323271 0.5
0.3017781 -0.0307333 0.5
0.3017386 0.03121549 0.5
0.2959111 -0.06679559 0.5
0.298957 -0.05154143 0.5
0.30082 -0.03943907 0.5
0.3007832 0.03992521 0.5
0.2525495 0.1682752 0.5
-0.2640163 -0.1496713 0.5
0.2989924 0.05207451 0.5
-0.2076739 0.2213517 0.5
-0.2214598 0.2075682 0.5
0.2986417 -0.05494998 0.5
0.2366274 -0.1903619 0.5
0.2929067 -0.08059915 0.5
-0.236397 -0.1908149 0.5
0.3018525 0.0346479 0.5
0.1532234 0.2623744 0.5
-0.1800335 -0.2447662 0.5
0.2957294 -0.07002573 0.5
0.2988024 0.05551461 0.5
0.2983323 -0.05834822 0.5
-0.152818 0.2627929 0.5
-0.1250315 0.2772011 0.5
0.2972569 0.06414466 0.5
0.125665 0.276926 0.5
0.301083 -0.04293755 0.5
0.3010198 0.04342555 0.5
0.2962103 0.06947269 0.5
0.09841648 -0.2879764 0.5
0.294223 0.07793971 0.5
0.2980565 -0.06173455 0.5
0.2652332 -0.1493391 0.5
0.3044292 0.001932541 0.5
0.3044611 -0.001459641 0.5
0.2987424 0.05895348 0.5
0.02807443 0.3032124 0.5
-0.02719577 0.3033205 0.5
-0.3031565 0.02916542 0.5
0.3010168 -0.0463898 0.5
-0.09767532 -0.2885575 0.5
0.3010185 0.04689471 0.5
-0.3036242 -0.02530178 0.5
0.08479845 0.2926498 0.5
-0.02741298 -0.3034696 0.5
-0.08399291 0.2929091 0.5
0.3047017 0.005414535 0.5
0.3039412 0.02263121 0.5
0.3047472 -0.00493818 0.5
-0.2926756 0.08509577 0.5
0.01433162 0.3044614 0.5
0.3039956 -0.02215019 0.5
-0.01344088 0.3045167 0.5
0.3042148 0.01919748 0.5
0.3037058 0.02606637 0.5
0.3037588 -0.02558559 0.5
0.3042714 -0.01871666 0.5
-0.3044557 0.01563854 0.5
0.2978293 -0.0651196 0.5
-0.01352443 -0.3045709 0.5
0.3044839 0.01576374 0.5
-0.2938007 -0.08149584 0.5
-0.2792591 -0.1224388 0.5
-0.3046995 -0.01172522 0.5
0.304542 -0.01528325 0.5
0.3008279 -0.04982446 0.5
0.3047968 0.008879285 0.5
0.3047019 0.01232639 0.5
-0.04074889 0.3022311 0.5
0.3048523 -0.008400618 0.5
0.04162377 0.3021173 0.5
0.304757 -0.01184632 0.5
0.303607 -0.02902292 0.5
0.01443052 -0.3046524 0.5
0.3035671 0.02950332 0.5
0.300842 0.05034246 0.5
0.02832242 -0.3037221 0.5
-0.3025808 -0.03866214 0.5
-0.0411901 -0.3022566 0.5
0.0004559037 -0.3050502 0.5
0.000443659 0.3050563 0.5
-0.3020817 0.04251246 0.5
-0.1939983 0.2355134 0.5
-0.3051255 0.001945441 0.5
-0.2356676 0.1939422 0.5
0.3005352 -0.05323745 0.5
0.2976822 0.06768914 0.5
-0.278157 0.1258241 0.5
0.042157 -0.3023863 0.5
0.3035807 -0.03246631 0.5
0.2933683 0.08459209 0.5
[...]
POINT_DATA 3883
FIELD attributes 1
U 3 3883 float
0 0 0
0 0 0
0 0 0
13.94 8.59504e-16 0
13.94 8.59504e-16 0
13.94 8.59504e-16 0
13.94 8.59504e-16 0
13.94 8.59504e-16 0
13.94 8.59504e-16 0
13.94 8.59504e-16 0
13.94 8.59504e-16 0
13.94 8.59504e-16 0
13.94 8.59504e-16 0
13.94 8.59504e-16 0
13.94 8.59504e-16 0
13.94 8.59504e-16 0
13.94 8.59504e-16 0
13.94 8.59504e-16 0
0 0 0
0 0 0
0 0 0
13.94 8.59504e-16 0
0 0 0
0 0 0
0 0 0
0 0 0
0 0 0
0 0 0
13.94 8.59504e-16 0
0 0 0
0 0 0
0 0 0
13.94 8.59504e-16 0
0 0 0
0 0 0
0 0 0
0 0 0
13.94 8.59504e-16 0
0 0 0
13.94 8.59504e-16 0
0 0 0
0 0 0
0 0 0
13.94 8.59504e-16 0
13.94 8.59504e-16 0
0 0 0
0 0 0
0 0 0
0 0 0
0 0 0
0 0 0
13.94 8.59504e-16 0
0 0 0
0 0 0
13.94 8.59504e-16 0
13.9399 -0.001962294 -2.563947e-17
13.94007 -0.0005218819 -2.258166e-17
0 0 0
0 0 0
13.94 8.59504e-16 0
0 0 0
0 0 0
0 0 0
13.94 8.59504e-16 0
0 0 0
0 0 0
0 0 0
0 0 0
13.94 8.59504e-16 0
0 0 0
0 0 0
13.94 8.59504e-16 0
0 0 0
0 0 0
0 0 0
0 0 0
0 0 0
0 0 0
0 0 0
0 0 0
13.94 8.59504e-16 0
0 0 0
13.94 8.59504e-16 0
13.94 8.59504e-16 0
0 0 0
13.94 8.59504e-16 0
0 0 0
0 0 0
0 0 0
0 0 0
0 0 0
0 0 0
13.93957 -0.004157079 1.77156e-15
0 0 0
0 0 0
13.93977 -0.002144946 -8.224822e-17
0 0 0
0 0 0
0 0 0
0 0 0
13.94 8.59504e-16 0
0 0 0
0 0 0
13.94 8.59504e-16 0
0 0 0
0 0 0
0 0 0
0 0 0
0 0 0
0 0 0
0 0 0
0 0 0
0 0 0
0 0 0
0 0 0
0 0 0
13.94043 -0.00281866 -1.626322e-16
0 0 0
13.94059 -0.004023938 -7.523138e-15
0 0 0
13.93961 -0.00616131 8.255633e-16
0 0 0
0 0 0
0 0 0
0 0 0
0 0 0
13.93954 -0.005682792 1.783561e-15
0 0 0
0 0 0
0 0 0
13.94 8.59504e-16 0
0 0 0
0 0 0
13.93975 0.002292337 7.098239e-15
0 0 0
0 0 0
0 0 0
13.93931 -0.002112464 -1.278394e-16
0 0 0
0 0 0
0 0 0
13.94057 -0.004257056 8.661317e-15
0 0 0
0 0 0
0 0 0
0 0 0
13.94 8.59504e-16 0
0 0 0
13.93942 -0.005217321 2.714036e-15
0 0 0
0 0 0
0 0 0
13.94024 -0.002481559 -1.94714e-16
0 0 0
13.94074 -0.006304251 -2.229686e-16
0 0 0
0 0 0
0 0 0
0 0 0
0 0 0
0 0 0
8.397955 5.17796e-16 0
0 0 0
7.087134 4.369742e-16 0
0 0 0
0 0 0
13.94047 -0.003496821 -1.772039e-15
0 0 0
0 0 0
0 0 0
0 0 0
0 0 0
13.93949 -0.004896163 -2.628601e-15
13.93708 -0.002175753 -2.999365e-15
13.93932 -0.001492224 -1.79051e-16
13.94045 -0.003534984 -3.322299e-15
13.93949 -0.005037056 2.928178e-15
13.9399 -0.002485777 -2.212698e-17
13.93996 -9.553376e-05 -6.243335e-15
13.93976 -0.006348444 2.393108e-15
13.94064 -0.005739033 1.085544e-14
13.94067 -0.002327385 1.59975e-15
13.94006 -0.003047992 -1.568693e-15
13.93719 0.004747443 -2.681694e-14
13.94036 -0.002824641 -1.131582e-16
13.93946 -0.00459495 -3.612524e-15
13.93229 0.002038163 -2.025578e-16
13.9403 -0.003060297 -8.150132e-17
13.93954 -0.004866831 3.168561e-15
13.92945 -0.01538984 8.166935e-14
13.9268 0.03531265 -3.413052e-16
0.3607018 -2.675084 5.02542e-11
13.92959 0.03210795 2.197161e-13
13.94156 -0.002785672 2.478382e-14
13.9405 -0.004818489 8.885423e-16
13.93975 -0.007174185 -4.864926e-15
13.94125 -0.0007567331 1.487952e-15
0.4674022 1.814276 6.865596e-11
13.87554 0.0454764 -7.585654e-16
13.93985 -0.006181275 -3.03254e-15
13.79615 -0.1594495 -1.328198e-11
13.93859 -0.01177782 -2.095637e-15
13.94047 -0.007242406 9.937131e-16
13.93853 -0.01065851 2.13179e-15
1.649055 -0.6883485 1.048627e-12
0.4115291 0.1507026 1.741601e-11
13.94098 -0.0005387374 1.692175e-14
0.6320994 1.110372 7.451679e-13
13.93957 -0.007204259 -1.396261e-15
13.94099 -0.006965919 1.613373e-15
13.93933 -0.004935931 7.999939e-16
13.93893 -0.01255928 -2.969386e-15
-0.07865323 -0.08599562 2.806199e-11
13.93876 -0.009948545 1.824504e-15
0.3613545 -2.246768 9.12693e-11
-0.3196854 -0.4286589 2.539504e-11
0.7074205 1.097975 -4.579446e-11
13.93985 -0.00574016 1.081476e-15
13.94092 -0.006495418 -2.12767e-15
13.93973 -0.007900667 1.414231e-16
13.93894 -0.009692436 9.385757e-16
4.104557 0.3606611 -1.230689e-09
13.93914 0.004955436 -1.88624e-14
13.94079 -0.006052595 -9.244178e-16
13.93244 -0.006871424 -9.518455e-15
2.683219 -0.8096105 -2.961163e-11
13.93906 -0.00942562 -1.082444e-15
13.94046 -0.005804444 -1.284835e-16
13.9392 -0.009212197 7.794725e-16
13.93939 -0.01350843 -3.162189e-15
13.93899 -0.002784102 -3.219182e-17
-0.3727592 -0.9337652 1.688248e-11
0.5281106 -1.938303 -5.174504e-11
13.39679 0.3546569 -4.626552e-14
0.8192701 -1.927069 -2.819722e-11
13.94366 -0.0006389483 1.768331e-13
13.91924 0.01269966 -9.138973e-15
0.4535818 -2.247471 2.282324e-12
0.7240303 0.1462117 1.018799e-11
1.637332 -0.3627211 9.121225e-12
2.185103 0.6302808 -7.742585e-11
13.93099 0.05183078 5.450185e-13
-0.2951141 -1.258265 1.883958e-12
1.869988 0.7571306 -2.332983e-12
1.500549 -1.492356 6.132687e-13
13.94382 -0.01145864 5.323732e-14
0.9044514 -2.399323 1.363813e-11
13.94189 -0.006816837 5.919072e-15
0.4918855 -2.234341 3.402422e-11
1.406885 -1.831959 -1.858165e-11
13.93974 -0.008275991 -3.09109e-16
1.531462 -2.359198 -2.643717e-12
13.84562 0.03671137 2.332215e-13
0.300185 1.476009 3.213141e-10
0.6031952 -1.979035 -2.423889e-11
1.70432 -1.201498 -4.299682e-11
13.86083 -0.04732892 -8.693702e-13
13.94083 -0.001512016 -7.984552e-15
13.93975 -0.0133569 -7.434351e-15
-0.3736918 -0.7999216 2.166625e-11
1.017315 -1.980798 -2.139195e-11
1.51892 -1.532497 1.030597e-11
1.315902 1.021627 -3.961988e-12
13.93913 -0.009449763 5.035705e-15
13.94028 -0.01145295 -6.495606e-15
2.570085 -1.561129 -3.566537e-11
0.5114877 1.234161 -7.607184e-11
2.71641 -1.289189 -5.409836e-12
13.94363 0.002332324 4.292903e-14
13.94125 -0.008943277 -1.928328e-15
0.02226659 -0.01148405 3.097335e-11
0.7137693 -1.980324 1.252872e-11
1.757345 0.9693312 -3.003878e-11
1.137096 -1.547057 -2.836644e-12
1.387643 1.038657 -1.044304e-11
2.073331 -2.052453 6.375167e-12
8.911714 -0.1193812 -2.928189e-10
13.93927 -0.01041645 -2.702238e-16
13.93728 -0.01708108 -2.99134e-16
13.94151 -0.01099082 2.440749e-15
13.9377 -0.01581575 4.435744e-15
13.54117 0.2127991 3.343387e-13
13.94381 -0.004806431 2.350761e-14
2.042123 -2.110523 -4.648742e-11
13.93893 -0.008162047 -3.5418e-15
13.93769 -0.01957867 -1.125206e-14
-0.3550146 -0.5082341 3.052631e-11
13.94154 -0.009767038 -2.916033e-15
1.25118 1.077111 -6.608621e-12
13.93853 -0.01715251 -3.570031e-15
13.93832 -0.01488117 3.405424e-15
13.94006 -0.009445173 -2.645491e-16
1.605937 -1.433674 -8.01588e-12
13.94129 -0.009775793 -2.272641e-16
13.93886 -0.01448646 6.466094e-15
0.3105066 -2.169364 -1.329622e-11
13.93837 -0.01488667 -2.40498e-16
13.94114 -0.008667756 -6.751592e-17
1.074738 1.158947 -1.064864e-10
13.93884 -0.01411549 -3.233899e-15
2.246467 -2.011597 -6.80383e-12
13.93741 -0.01977541 -2.167199e-15
13.93747 -0.006868554 7.247374e-15
2.822599 0.9600068 1.918036e-10
13.93908 0.02205437 -6.751122e-14
13.94272 -0.01638562 4.798698e-14
13.94324 -0.004373798 -1.110282e-14
1.291098 -1.845549 1.125186e-11
1.350014 -2.422128 -1.494023e-11
13.91916 -0.01234898 -3.510997e-14
-0.2044457 -0.2040902 4.305685e-11
-0.224326 -0.2843711 2.99761e-11
13.96922 -0.01252368 7.203508e-13
0.9807356 1.136464 1.252608e-12
0.3292513 1.589229 4.773999e-11
1.83214 -2.318981 -1.297637e-11
13.9381 -0.001943493 -3.175169e-16
1.788344 -1.027109 2.068508e-12
2.435597 -1.825372 -2.884442e-11
0.2812624 3.620438 2.626619e-09
13.89663 0.02495877 -3.782436e-15
13.89919 0.2052658 1.227405e-12
0.1432793 0.06696158 3.19023e-11
0.339529 0.101371 3.786072e-11
7.252177 -0.259497 1.213527e-13
1.677799 -0.7403864 1.091355e-11
13.94501 -0.0101793 8.96245e-14
13.94419 -0.01192396 1.952141e-14
0.1478992 -2.348404 -1.446563e-11
2.022582 0.6925353 -1.130885e-10
0.5022265 -1.94973 -9.207418e-11
13.81264 -0.257659 8.341379e-12
0.6266912 1.117895 2.323911e-12
13.93851 -0.01451411 2.550525e-15
13.93924 -0.01605904 -7.323683e-16
13.67046 0.04029265 9.883589e-13
1.330798 -0.1872466 -1.467427e-11
0.9653628 0.06440867 2.473144e-11
-0.1171461 -1.488086 1.558421e-11
13.94425 -0.0132942 1.764168e-13
2.869275 -0.9631489 -3.998213e-11
13.94292 -0.01879819 4.047176e-14
0.2199337 -1.932575 -2.639326e-12
1.712381 -0.5048122 4.46084e-13
2.7483 -0.3489124 -2.380524e-11
0.6645644 0.154121 1.954963e-11
13.93877 -0.0141589 3.21539e-15
13.94062 -0.01488806 -2.957306e-15
13.939 -0.01918735 1.753174e-15
-0.3385488 -1.18119 -3.355564e-12
1.302384 -0.1167042 -2.506709e-11
13.93609 -0.02237073 3.628111e-15
1.106102 0.04272238 2.396326e-11
13.94211 -0.01435397 -2.612594e-15
13.93872 -0.0128417 -1.799886e-15
13.93613 -0.02385103 -2.390831e-15
13.93696 -0.02127144 3.512284e-15
-0.0930285 -1.685239 1.261262e-11
3.277924 -0.3928402 -1.542637e-11
2.766313 -0.2611282 -2.523469e-11
13.94204 -0.01351085 -3.370006e-16
0.6178567 -2.350453 -1.503752e-11
1.076278 -2.446999 -2.084913e-12
0.1278354 -1.915204 1.520023e-12
13.93765 -0.02085412 1.791526e-15
13.94172 -0.006853109 1.707815e-13
13.94034 -0.01293522 -6.119657e-16
13.94154 -0.01306737 -1.236504e-15
0.8717359 0.08230508 4.109279e-11
13.93852 -0.02016266 -3.332695e-16
1.395518 -0.232832 1.686277e-11
13.93815 -0.02041753 -1.443777e-15
13.93599 -0.02496999 6.826895e-15
2.6581 0.003981103 -3.125065e-11
13.93701 -0.01045318 5.460174e-15
13.92146 -0.02386007 -1.192378e-13
2.56357 0.09410375 -3.209585e-11
0.2869435 -1.972823 8.173488e-13
2.851818 -0.4423004 -5.409043e-11
2.771061 -0.1269368 -2.742551e-11
1.247463 -0.03390952 -1.820012e-11
-0.1276987 -1.364709 1.518365e-11
-0.1085983 -0.1201665 5.842141e-11
0.008690814 -1.855751 3.690123e-14
-0.2475196 -0.3504693 4.530152e-11
13.9608 -0.001140583 2.474122e-12
0.9147784 -1.335047 4.244381e-12
-0.3296865 -0.8636644 2.919585e-11
2.491556 0.2091856 -4.400998e-11
13.93656 -0.02723416 9.884179e-15
0.6388155 -1.973031 -6.194756e-11
0.8508385 -1.961871 -1.020577e-11
13.21025 0.4112778 4.492794e-13
13.93641 -0.006688295 1.156577e-14
0.2625575 1.298603 -6.718086e-12
13.89638 -0.008134289 -2.164178e-13
13.95392 0.07240245 3.91139e-12
1.493282 -1.710729 -2.728822e-11
0.2749187 1.493795 9.345182e-11
2.874578 -0.58346 -3.265688e-11
0.6176952 1.211292 -6.866002e-11
0.8525374 1.217961 -1.808908e-11
13.93972 -0.004099829 -5.855956e-15
13.25902 -0.04364771 1.645405e-11
1.851912 0.8244597 -1.715537e-11
13.73625 0.0676283 7.803677e-13
2.39527 0.3056 -3.603905e-11
1.7083 -1.25877 -9.311737e-12
13.93976 -0.03247097 -2.438097e-14
1.663497 -2.350743 3.703629e-12
1.913364 0.7215834 -2.014536e-11
2.708087 -1.389136 -2.661293e-11
1.600069 0.9983068 -9.17172e-11
13.9382 -0.02029734 -3.199069e-15
1.671746 -0.6141899 -7.442356e-12
0.2813713 -1.871883 -3.898824e-11
2.558304 -1.635596 -4.660638e-11
-0.3396935 -0.6863614 3.124676e-11
0.5547299 0.1531293 4.545233e-11
0.728165 -1.970661 -6.074604e-12
13.93703 -0.01970221 8.562242e-15
9.095041 -0.2936262 1.434997e-11
1.16695 -2.000111 -6.412005e-12
2.006703 -0.09137966 3.308702e-12
13.93878 -0.02372346 7.514151e-15
0.8227476 0.08740023 4.217306e-11
0.3439977 -2.05336 -2.772793e-13
1.516678 -0.3037184 -1.621457e-11
-0.3507569 -1.03295 3.791801e-11
13.9389 -0.01731816 -2.1951e-16
13.94256 -0.01969131 -1.334873e-14
13.93828 -0.02593827 -2.129414e-15
13.93523 -0.02748255 2.397823e-15
13.93917 -0.0185028 -1.184289e-15
13.94283 -0.01693165 4.200869e-15
1.650975 -0.7130538 3.715934e-12
13.93414 -0.02915947 7.630497e-15
0.4252559 0.122497 2.890337e-11
-0.1538024 -1.296421 2.388815e-11
13.93664 -0.02693219 3.908238e-15
13.94247 -0.01756209 -2.740377e-15
13.94124 -0.01619248 -1.876481e-15
13.43032 0.2539832 1.425742e-12
13.93731 -0.02665526 1.263874e-16
13.93811 -0.02591086 -2.39528e-15
13.94745 -0.004973564 -5.001608e-14
13.93754 -0.01437917 -2.28037e-15
13.93539 -0.02975464 -5.624759e-15
2.781237 -0.6468245 -5.563358e-12
0.7930818 -2.336519 -9.905923e-11
-0.02322537 -0.07587916 3.062016e-11
3.560917 0.818261 5.94877e-10
2.821247 -1.104942 -2.573776e-11
1.772227 -0.8512862 1.656122e-11
13.93342 -0.03095695 4.654192e-14
0.3080101 -1.903672 -1.760985e-10
13.93409 -0.0124916 2.046749e-14
0.2948512 0.09885171 7.077631e-11
2.771947 -0.822952 -5.977014e-11
-0.2471653 -0.3906137 3.137124e-11
1.195361 -2.416294 -2.684421e-11
0.7954113 -1.977112 1.008768e-10
0.3183984 1.318864 8.427766e-11
2.333589 0.3986116 -2.874215e-11
2.156745 0.6357028 -1.33155e-10
0.6469492 1.136915 -1.202772e-11
13.94847 -0.02536855 2.012976e-13
0.7209889 0.1273066 2.030145e-11
1.638295 -0.4334332 -6.345942e-12
0.3930952 -1.386074 3.106429e-11
13.93593 -0.005573126 1.933846e-14
0.5362453 -2.228033 -1.151459e-11
-0.2566177 -1.193817 8.513666e-12
0.9794945 -2.372199 -3.036491e-11
7.600731 0.1228823 2.549733e-11
1.401083 -1.788474 -3.327781e-11
0.7438971 1.156836 -4.322887e-11
13.95122 -0.03495359 1.59818e-13
1.568484 -2.353447 -2.292596e-10
1.703055 -1.209614 -4.632638e-11
0.2110458 1.643435 -1.915447e-10
13.93647 -0.02643096 -1.332987e-14
-0.326633 -0.8931203 3.148106e-11
13.93738 -0.02742044 -1.135916e-14
0.8203278 -1.951398 -3.012062e-11
0.5564994 -1.979681 -1.268918e-10
0.03953676 -0.05095585 2.297192e-11
13.937 -0.02300253 -7.620349e-15
13.93755 -0.03189978 -1.64675e-15
13.94222 -0.04842513 7.027344e-13
13.93957 -0.02265359 -2.574677e-15
13.94354 -0.02221508 -3.782885e-15
0.3094725 1.963067 7.115777e-10
13.93995 -0.0235841 2.070295e-14
13.9342 -0.03426777 -4.554064e-15
13.94325 -0.02261036 4.747745e-15
13.93528 -0.03485708 -3.621033e-15
13.93791 -0.03190131 6.535248e-15
13.94211 -0.02106208 5.899341e-15
13.93652 -0.03245334 1.051185e-15
13.93719 -0.03376233 4.120698e-15
13.93635 -0.02029252 3.762104e-14
13.93441 -0.03694296 -2.351272e-14
1.872486 0.7877562 -6.006822e-11
1.540672 -0.6116762 5.098044e-11
13.93449 -0.03591033 -1.34545e-14
13.93311 -0.01817173 1.284748e-13
-0.2536725 -0.4242153 4.405596e-11
-0.3117456 -0.73984 2.691478e-11
1.037282 -1.978747 -4.704438e-11
2.583562 -1.55306 -5.824277e-11
0.5187082 1.224953 -8.734372e-11
2.718628 -1.290873 -6.353141e-11
1.715309 0.9692934 -7.887795e-11
13.86197 -0.04854316 -7.876189e-13
13.93246 -0.01278142 1.623968e-13
13.93654 -0.04122648 -4.624376e-14
14.00652 0.01725722 1.247053e-11
1.286793 -1.832376 -5.415168e-11
0.6925373 -1.953252 -1.153114e-10
0.6359362 1.140068 -6.35063e-11
13.94336 -0.0137399 3.205747e-15
0.9053245 -1.375728 3.742812e-11
1.484349 -2.388918 -8.36898e-11
1.485551 -1.52258 -1.840984e-11
1.634664 -0.6804277 6.621452e-12
0.4971081 0.1346554 4.364152e-11
1.727565 -1.16347 -9.030052e-11
0.6487384 1.158485 -2.604071e-11
1.302854 1.066885 -5.822819e-11
1.338671 1.031546 -6.579283e-11
2.060333 -2.01532 -6.417621e-11
0.1004908 -0.009827961 2.251073e-11
10.21069 -0.2061222 6.64749e-11
1.50096 -1.500324 -2.179945e-11
1.520164 -1.478671 -3.689019e-11
2.759034 -0.6646608 -9.023798e-11
0.7769107 0.1011238 3.987906e-11
2.203443 -2.045102 -4.878125e-11
1.592039 -0.3675152 1.130552e-11
13.94146 -0.03922448 -3.828325e-14
1.313938 -0.187949 -1.235883e-11
0.4549688 -2.136361 1.475458e-11
1.327013 1.04051 -4.040647e-11
13.41531 0.3254014 3.52832e-12
1.058815 0.0110671 1.814619e-11
2.746498 -0.2599783 -6.392806e-11
-0.04446538 -1.53848 9.41209e-12
1.180938 1.147928 -1.554852e-10
-0.3051928 -0.7911826 5.029496e-11
0.8849402 -2.307703 -3.831055e-11
-0.1825917 -1.23149 3.962533e-11
2.777578 -0.3580469 -9.023395e-11
0.8971924 -1.976366 -1.174982e-10
0.1050481 1.467201 -6.919688e-11
2.121418 -2.031078 -4.387708e-11
2.746099 -0.1401557 -8.119142e-11
-0.3383305 -0.9333314 6.582256e-11
0.2221528 -1.839309 -8.153265e-12
2.620257 0.1123201 -8.883908e-11
1.878389 0.7593299 -1.656589e-11
1.176482 -0.04104475 3.36273e-12
1.263914 -0.1156942 -1.341743e-11
2.700404 -0.001215441 -9.282531e-11
0.17478 0.0274879 2.31172e-11
2.253004 0.5627367 -1.908104e-10
1.365151 -0.245109 2.160508e-12
0.9546016 0.03872781 2.408468e-11
0.1252179 -1.782787 -8.683892e-12
0.02205107 -1.681421 1.851946e-13
1.251547 1.09551 -6.890161e-11
1.001961 1.150167 -1.202045e-10
-0.07070912 -1.408232 1.103036e-11
2.028396 -2.115414 -1.385691e-10
0.2949341 -1.88907 -2.227194e-12
2.551712 0.215385 -1.035838e-10
0.7671982 -1.988251 -3.071339e-11
1.99329 -2.212565 -3.031864e-10
1.78328 0.9247735 -7.037693e-11
2.64076 -1.448771 -1.067332e-10
13.96168 -0.04453875 -4.441681e-14
1.493753 -1.55683 -9.843338e-12
2.37953 -1.909236 -6.521388e-11
0.5644527 -1.964819 -1.750927e-10
1.099107 1.148555 -1.130762e-10
2.273986 -1.982974 -5.246783e-11
-0.2760772 -0.5026804 3.276512e-11
2.040648 0.6933941 -9.612956e-11
2.74727 -1.167743 -1.280234e-10
0.3908021 1.231643 -1.292505e-10
-0.1434106 -0.2177829 4.549685e-11
0.9062305 1.523516 3.50967e-10
1.499791 -1.601335 9.185953e-12
13.94633 -0.04747979 4.738021e-13
1.419634 1.030803 -5.618077e-11
1.689964 -0.800088 7.682334e-12
0.377395 0.08936521 3.774098e-11
1.653415 -0.5656026 -2.218767e-11
2.823187 -0.4879883 -1.040531e-10
0.6495772 0.1265146 2.381065e-11
1.272393 -1.860952 -1.427369e-11
2.480575 0.3152784 -1.129614e-10
1.596398 -1.430564 -4.803867e-11
-0.2742741 -1.067622 1.18317e-11
2.822329 -0.9938174 -5.601188e-11
1.394491 -2.382952 -6.096672e-11
13.93415 -0.04306387 -5.089776e-14
0.719327 -2.267206 -5.691154e-11
-0.07183336 -0.1254008 5.068944e-11
13.93423 -0.03574493 -4.061447e-14
1.481425 1.029441 -1.017619e-10
-0.1963574 -0.293243 5.298095e-11
13.93712 -0.04861246 3.113402e-14
13.94288 -0.03289019 2.899393e-14
-0.3068248 -0.5900737 4.438903e-11
1.136417 -2.377628 -5.15619e-11
1.752009 -1.069305 -4.074126e-11
13.93519 -0.04857233 -1.524496e-15
13.94597 -0.03364067 -2.412919e-15
2.571172 -0.191547 1.43445e-10
13.85425 -0.06621397 -3.362207e-12
1.673126 -1.392419 -9.184099e-11
-0.1030347 -0.1731195 3.834034e-11
13.93272 -0.05172597 -3.225187e-14
1.243759 -1.918636 6.605166e-12
-0.1589947 -0.2555417 3.536176e-11
0.9900534 1.164347 -4.835478e-11
13.95907 0.003934217 3.710219e-13
1.872274 -2.275766 -1.260336e-10
13.93034 -0.03154585 1.540766e-13
0.6053852 -1.971543 -3.163154e-10
2.432818 -1.809395 -5.149343e-11
1.780277 -2.338325 -4.152009e-11
0.8824188 0.05478147 2.835409e-11
1.442229 -0.3022673 3.396861e-12
0.9508651 1.200472 -2.111951e-11
13.9347 -0.05242785 -1.133787e-13
0.3542607 -1.951486 2.150673e-12
0.216987 0.04906495 2.972595e-11
2.500207 -1.695179 -6.540251e-11
0.2153141 1.477285 -1.143535e-10
-0.09775982 -1.326884 7.206296e-11
1.316654 -2.38382 -8.602608e-11
1.787277 -0.9851835 -4.906748e-12
13.92485 -0.02401234 5.858537e-13
2.806387 -0.6172543 -6.656596e-11
-0.2226909 1.456461 -7.583947e-11
0.2827857 0.06924571 4.595604e-11
12.09375 -0.1305646 1.784727e-11
13.52958 0.1708848 -5.447068e-12
13.94127 -0.05974086 -1.878107e-13
2.410917 0.3998347 -9.756452e-11
0.6751532 1.158585 -3.65744e-11
0.7322494 -1.99102 -1.173718e-10
0.8484386 -2.005591 1.5372e-10
13.97285 -0.02894708 -5.714702e-13
5.803037 0.2869294 1.290637e-10
13.93609 -0.03916688 -1.46164e-13
-0.0008591724 -0.09586465 3.377814e-11
-0.268399 -0.805311 2.782341e-11
0.608754 1.201813 -6.881133e-11
0.8899769 -1.95616 -4.585197e-11
1.452138 -1.684924 -2.456597e-11
-0.1611869 -0.3138818 3.172689e-11
8.285872 0.2485716 7.021022e-11
1.841823 0.8680029 -1.317109e-10
0.1910554 1.446889 7.235522e-12
2.67935 -1.390795 -3.751021e-10
13.97479 -0.1086903 2.905332e-13
1.62927 -0.6557738 -1.23593e-11
1.669802 -1.297659 -4.772598e-11
0.5768562 0.113487 2.947619e-11
13.95824 -0.07663287 1.130593e-12
1.705796 -2.326304 -4.371463e-10
1.609061 0.9931323 -9.38162e-11
13.93184 -0.04824951 -6.294595e-13
0.8804787 1.200322 -2.574036e-11
13.93291 -0.06035282 -6.153978e-13
1.978399 0.7276374 -3.85936e-11
13.93646 -0.0503465 -7.434639e-13
1.642706 -0.7539523 -2.117649e-12
13.93451 -0.06320203 -3.378568e-13
0.4628809 0.08943874 2.349327e-11
-0.2522329 -0.6227599 2.232921e-11
13.94312 -0.04808575 -5.363095e-13
1.158384 -1.943608 -2.421387e-11
13.93151 -0.0685619 -5.219994e-13
0.6153878 1.318459 8.166908e-11
2.536741 -1.63703 -4.676028e-11
13.93991 -0.04031306 -5.599408e-13
-0.2698066 -0.9424465 3.365717e-11
1.609202 -0.5267745 -5.319501e-11
0.8280314 0.06510501 2.659883e-11
0.7191813 0.09859263 1.591423e-11
1.516613 -0.3731548 -1.484062e-12
0.8611062 -2.264154 -6.136018e-11
2.156553 0.6569447 -1.79635e-10
0.4520472 -2.036922 3.838525e-11
13.93105 -0.0659307 -4.944184e-13
2.779093 -0.6968668 -6.947354e-11
2.81288 -0.8528406 -9.441779e-11
-0.1422705 -1.264863 1.387825e-10
13.93244 -0.02619781 -1.222841e-13
13.62794 -0.07282203 -1.311314e-11
0.6520361 -2.163487 -5.483399e-11