/*--------------------------------*- C++ -*----------------------------------*\
| =========                 |                                                 |
| \\      /  F ield         | OpenFOAM: The Open Source CFD Toolbox           |
|  \\    /   O peration     | Version:  v1706                                 |
|   \\  /    A nd           | Web:      www.OpenFOAM.com                      |
|    \\/     M anipulation  |                                                 |
\*---------------------------------------------------------------------------*/
FoamFile
{
    version     2.0;
    format      ascii;
    class       volScalarField;
    location    "440";
    object      alphat;
}
// * * * * * * * * * * * * * * * * * * * * * * * * * * * * * * * * * * * * * //

dimensions      [0 2 -1 0 0 0 0];


internalField   nonuniform List<scalar> 
32305
(
0.003362138
0.01181374
0.01395158
0.01516383
0.01586073
0.01630945
0.01663343
0.01688517
0.01708932
0.0172597
0.01740545
0.01753322
0.01764831
0.01775501
0.01785695
0.01795726
0.01805853
0.01816319
0.01827338
0.01838976
0.01851098
0.01863864
0.01877377
0.01891681
0.0190673
0.01922312
0.01937946
0.01952525
0.01963442
0.01964148
0.01937716
0.01844161
0.01614073
0.004826791
0.01490572
0.02432684
0.03078263
0.03571834
0.03949813
0.04247924
0.04491341
0.04693657
0.0486253
0.05001968
0.05114115
0.05200605
0.05263523
0.05305303
0.0532869
0.05336287
0.05330152
0.0531216
0.05283573
0.05243501
0.05200931
0.05157154
0.05112531
0.05068114
0.05025934
0.04985966
0.04947348
0.04904481
0.04841009
0.0472193
0.04490443
0.04072706
0.03342755
0.02033429
0.01561547
0.03409228
0.04370497
0.05219538
0.05951314
0.06560923
0.07042647
0.07401724
0.07650267
0.07801922
0.07870372
0.07869784
0.07814475
0.07717969
0.07592246
0.07447163
0.07290259
0.0712724
0.06961714
0.0679368
0.06626739
0.06460104
0.06291479
0.06118723
0.05941879
0.05765828
0.056018
0.0546293
0.05348571
0.05220094
0.04992646
0.04553392
0.03733311
0.02148574
0.01619001
0.04200724
0.05431895
0.06559818
0.07563176
0.08398442
0.09044722
0.0951413
0.09828126
0.1000434
0.1005797
0.1000561
0.09865431
0.09655803
0.09394081
0.09095721
0.08775918
0.0844849
0.08124679
0.07803025
0.07493081
0.07196228
0.06908609
0.06622007
0.06327079
0.06021716
0.05725161
0.05484622
0.05347216
0.0528506
0.05167064
0.04814633
0.04008349
0.0226127
0.0165463
0.04831427
0.06330952
0.07665832
0.08862128
0.09863055
0.1065583
0.1127677
0.1175527
0.1209709
0.1230072
0.123709
0.1231944
0.1216055
0.1190778
0.11573
0.1117077
0.1071868
0.1021711
0.09695564
0.09173571
0.08661168
0.08160218
0.07660813
0.07142055
0.06585471
0.06013077
0.05530995
0.05273749
0.0522148
0.05192409
0.04951918
0.04208011
0.02358591
0.01674246
0.05311741
0.07065599
0.08551931
0.09858487
0.1094677
0.1184686
0.1263001
0.133324
0.1393634
0.1440986
0.1473615
0.1491649
0.1495987
0.1487431
0.146649
0.1433676
0.1388612
0.1332214
0.1268905
0.1200807
0.1129421
0.1055392
0.09776582
0.08926797
0.07955858
0.06880726
0.05920472
0.0537752
0.05197234
0.05154988
0.05011709
0.04376734
0.02443789
0.01683201
0.05641987
0.07627255
0.09208979
0.1055632
0.116523
0.1259864
0.135056
0.1441472
0.1528872
0.1606327
0.1669068
0.1715357
0.1745291
0.1759313
0.17574
0.173951
0.1703538
0.1654959
0.1596573
0.1529555
0.1454519
0.1371049
0.1276549
0.1164371
0.1023657
0.08517179
0.0686526
0.05851264
0.05350016
0.05123103
0.05032762
0.04545698
0.0252277
0.01684592
0.05837906
0.08020412
0.09654023
0.1099146
0.120498
0.1299356
0.1396369
0.1500974
0.1608984
0.1712118
0.1802165
0.1874117
0.1926215
0.195832
0.1970248
0.1960062
0.1934246
0.1897768
0.1852918
0.1799727
0.1736884
0.1661852
0.1569516
0.1449354
0.1283484
0.1061035
0.08303692
0.06691336
0.0566751
0.05087441
0.05028754
0.04727632
0.02598919
0.01680252
0.05919255
0.082659
0.09929651
0.1123392
0.1223758
0.1314751
0.1412187
0.1522055
0.164118
0.1761576
0.1872173
0.1963176
0.2028929
0.2067626
0.2078051
0.2065464
0.2040441
0.2010913
0.1979801
0.194502
0.1901986
0.1845165
0.1766722
0.1653472
0.148495
0.1248666
0.09901454
0.07748061
0.06013107
0.04989765
0.04988427
0.04916753
0.02674587
0.01671402
0.05913681
0.08396724
0.1008617
0.1135347
0.1229834
0.1314778
0.1407451
0.1514984
0.1635924
0.1764589
0.18884
0.199169
0.2062568
0.2095215
0.2089072
0.2058489
0.2020842
0.1989787
0.1969024
0.1952666
0.1931372
0.1896247
0.1837163
0.1740343
0.1587902
0.1371066
0.1118418
0.08669605
0.06193116
0.04796183
0.04898384
0.05096783
0.02751835
0.01658859
0.05848103
0.08447474
0.1016749
0.1140349
0.122899
0.1305534
0.1388722
0.14877
0.160271
0.1731579
0.1861745
0.1971223
0.2040287
0.2055247
0.2021192
0.1959694
0.1898931
0.1859795
0.1845677
0.1845568
0.1845422
0.1833267
0.1797952
0.1726536
0.1603612
0.1418534
0.1181856
0.09061884
0.06095557
0.04521487
0.04763474
0.05251367
0.02832804
0.01643459
0.05740213
0.0844468
0.1020515
0.1142064
0.1225535
0.1292355
0.1362662
0.1448046
0.1551444
0.1673317
0.1801618
0.1908625
0.1966593
0.1956331
0.1892006
0.179856
0.1710752
0.165911
0.1647793
0.1660611
0.1679178
0.1689654
0.1680998
0.1641612
0.1556164
0.1405248
0.1175736
0.08721887
0.05624461
0.04205465
0.04606846
0.05368856
0.02919904
0.01628091
0.05590576
0.08394156
0.102034
0.1141248
0.1221416
0.1279648
0.1336401
0.1405245
0.1492357
0.1599379
0.1714585
0.180931
0.1848008
0.181931
0.1730336
0.1605986
0.1489453
0.142399
0.1413465
0.1435073
0.146675
0.1494569
0.1508955
0.1499777
0.1450285
0.1330082
0.1102209
0.07784984
0.04908559
0.03858038
0.04478589
0.05489926
0.03016143
0.01612295
0.05418066
0.08307118
0.1016987
0.1139191
0.1218535
0.1271166
0.1316397
0.1368981
0.143758
0.1524079
0.1617731
0.1692644
0.1713095
0.1669623
0.1560354
0.1405528
0.1259719
0.1182356
0.1173147
0.1199385
0.1236019
0.1271201
0.1298379
0.1309338
0.1285477
0.1184888
0.09531144
0.06346634
0.04110624
0.03566468
0.0443185
0.05677487
0.03125656
0.01595808
0.05236172
0.08184938
0.1009738
0.1134926
0.1216205
0.1267625
0.1305865
0.1345453
0.1396037
0.1459555
0.1527482
0.1576354
0.1581947
0.152636
0.1396716
0.1208139
0.103162
0.09465063
0.09427306
0.09706978
0.1002562
0.1032476
0.1059214
0.1076994
0.1064544
0.09655583
0.07333586
0.04822219
0.03522593
0.03455554
0.04536868
0.0597355
0.03254091
0.0157869
0.05053447
0.08022201
0.09967469
0.1125414
0.1210713
0.1265235
0.130198
0.1333451
0.1368809
0.1410084
0.1451705
0.1475039
0.1464217
0.1394948
0.1241605
0.1015733
0.08102258
0.07207855
0.07277639
0.07558177
0.07688661
0.07695915
0.07728249
0.07784002
0.07613594
0.06536482
0.0492679
0.03748322
0.03308996
0.03607501
0.04856938
0.06409912
0.03409142
0.01562046
0.04875947
0.07813675
0.09759558
0.1106637
0.1196247
0.1256244
0.1295714
0.1323781
0.1347594
0.1369185
0.1384919
0.1381676
0.13513
0.1266478
0.108813
0.08333136
0.0610466
0.05197501
0.05365789
0.05455257
0.05268293
0.05082468
0.04997858
0.04812669
0.04275518
0.03756919
0.03477392
0.03346846
0.03453494
0.04047253
0.05416472
0.06973496
0.03601391
0.01550193
0.04712637
0.07562584
0.09456823
0.1074885
0.1166754
0.1231477
0.1275063
0.1302367
0.1317291
0.1321076
0.130901
0.1278162
0.1228603
0.1132396
0.09381768
0.06792082
0.05389291
0.03704774
0.03705114
0.04008972
0.03093036
0.02531073
0.02323209
0.02302106
0.02463306
0.02719623
0.03020071
0.03349279
0.03857511
0.04760433
0.06211784
0.07644062
0.03849149
0.01553623
0.04581723
0.07285123
0.09059538
0.102765
0.1116725
0.1182769
0.1228758
0.1255079
0.1261746
0.1248657
0.1212955
0.1159621
0.1096133
0.09951595
0.08015949
0.05576692
0.03997775
0.02046507
0.01570743
0.02044996
0.006060756
0.008559688
0.01214886
0.01688941
0.02244016
0.02835747
0.03434393
0.04038154
0.04953304
0.06228766
0.07785166
0.08831891
0.04204119
0.01583982
0.0452709
0.06999031
0.08547536
0.09599265
0.1040051
0.1101482
0.1144236
0.1165269
0.1162233
0.1135826
0.1086586
0.102167
0.09512724
0.08521548
0.0682911
0.04845308
0.03395517
0.0008382867
0.003327318
0.02157083
0.02696328
0.03479974
0.04479695
0.05579774
0.06655884
0.07673109
0.0878551
0.1014425
0.1166892
0.1303093
0.1322249
0.04788393
0.006927399
0.04594168
0.06776447
0.07917157
0.08653334
0.09159091
0.09638866
0.09959245
0.1006027
0.09924864
0.09581911
0.09030253
0.08358075
0.07653824
0.0679303
0.05578682
0.04209968
0.033238
0.02223715
0.02469754
0.08202638
0.1353553
0.1659415
0.1937387
0.218681
0.2346124
0.2411477
0.2346566
0.2170377
0.1955754
0.1764289
0.1600838
0.1247877
0.04218548
0.008375122
0.04351056
0.06276247
0.07219201
0.07258673
0.06577708
0.06931988
0.07061103
0.06989669
0.06767159
0.06440788
0.05980389
0.05459626
0.04943442
0.0442307
0.03821812
0.03127772
0.02415191
0.02600995
0.0641055
0.09791052
0.1326755
0.1634968
0.1855824
0.2014101
0.2090792
0.2071012
0.1975236
0.1835365
0.1675482
0.1507936
0.130583
0.09462616
0.03806093
0.005656055
0.03623056
0.05642154
0.06064618
0.01174026
0.01431048
0.01772152
0.01805374
0.01792015
0.01758786
0.01715978
0.01670883
0.01623949
0.01573288
0.01516009
0.01447529
0.01359206
0.01292857
0.02351238
0.03273556
0.0386407
0.04316179
0.04648248
0.04847264
0.04926266
0.04914671
0.04848956
0.04740316
0.04578928
0.04368534
0.04089605
0.03686345
0.03048599
0.008562802
0.03608951
0.02667753
0.02190152
0.03703913
0.03608336
0.02667456
0.02189938
0.02666075
0.03592264
0.006831512
0.03996961
0.02665268
0.03591911
0.006832135
0.01496767
0.001267301
0.020463
0.01497106
0.00126669
0.02186002
0.001142625
0.01570772
0.02185665
0.001142122
0.004475158
0.03432702
0.02162012
0.033951
0.004476713
0.03432491
0.02162296
0.0192611
0.01657876
0.0008384639
0.01926372
0.01658126
0.005436371
0.01868885
0.04972791
0.005442098
0.0186922
0.04971956
0.02017722
0.02447596
0.02938463
0.02223372
0.02017995
0.02447691
0.02938497
0.01982984
0.005656442
0.01980502
0.04994581
0.03622435
0.04994661
0.06225365
0.05642305
0.06225442
0.02991684
0.06064824
0.02991373
0.0004789462
0.02047366
0.01621684
0.01434417
0.01622397
0.01435723
0.0004903307
0.0008276325
0.00838593
0.008424886
0.008501937
0.004083961
0.004077854
0.008597346
0.003483893
0.04667558
0.05149034
0.003327114
0.003483606
0.04667567
0.05148591
0.06261796
0.05710279
0.06871478
0.02469978
0.0626057
0.05710415
0.06871242
0.0169755
0.006899426
0.01791788
0.008374688
0.01697419
0.006907418
0.0179198
0.04826957
0.04126332
0.04901578
0.04350806
0.04826732
0.04126089
0.04901301
0.0668821
0.06016757
0.0649909
0.06275862
0.06687849
0.06016449
0.06498768
0.07167076
0.06579654
0.05793872
0.07218701
0.07166655
0.06579377
0.05793592
0.002127016
0.00212603
0.008880844
0.005657203
0.00885459
0.00551576
0.008852583
0.005499433
0.008894133
0.04025326
0.03621977
0.04104391
0.03389806
0.0410288
0.03388421
0.04026477
0.05854164
0.05640182
0.05936173
0.05528329
0.05933909
0.0552618
0.0585612
0.05089428
0.06061957
0.05600935
0.0585605
0.05598491
0.05853124
0.05091499
0.02745169
0.006814576
0.01804633
0.02546254
0.01804945
0.02547495
0.02742849
0.02744369
0.0068149
0.01804543
0.025456
0.01804716
0.02546966
0.02742145
0.0002482343
0.01496281
0.01503543
0.0006130056
0.01504077
0.0006001865
0.0002551108
0.001259067
0.01325266
0.01323946
0.0002370758
0.0002296841
0.0004789962
0.02047072
0.01622074
0.01435099
0.01622153
0.01435714
0.0004904441
0.0002482592
0.01496134
0.01504001
0.0006135292
0.01503959
0.0006002916
0.0002551779
0.001259117
0.01325752
0.01323918
0.0002373223
0.0002297121
0.005912463
0.0004872746
0.0001635216
0.0004744029
0.0001650139
0.005899304
0.005912165
0.00048774
0.0001635338
0.000474461
0.0001650535
0.005898788
0.0240959
0.004456065
0.02402119
0.01130073
0.02402826
0.01134406
0.02408682
0.02409122
0.004456188
0.0240177
0.01129981
0.02402524
0.01134272
0.02408317
0.0192389
0.009589953
0.01391424
0.009646263
0.0138999
0.01650693
0.01347948
0.01346268
0.0008276244
0.008384035
0.008422903
0.019238
0.009588647
0.01391623
0.009644317
0.01389703
0.01650377
0.01348162
0.01345989
0.009019271
0.005444073
0.003756387
0.002945806
0.003750205
0.002928939
0.009090385
0.01194483
0.01859348
0.03622518
0.03612543
0.0120537
0.008503428
0.004084676
0.004077955
0.008605914
0.009021172
0.005445136
0.003757215
0.002945956
0.003750235
0.002929861
0.00909463
0.01194635
0.01859001
0.03623121
0.03612099
0.01206498
0.02622833
0.02012456
0.01683848
0.0286961
0.01680783
0.02867165
0.02624634
0.02622833
0.02012124
0.01683861
0.0286972
0.01680529
0.02867154
0.0262473
0.01587448
0.01981696
0.01662591
0.02056708
0.0166148
0.02055358
0.01589249
0.008864011
0.005656873
0.008853408
0.00546338
0.008851882
0.005477646
0.008851709
0.01585286
0.0198067
0.01660194
0.02053917
0.01660492
0.02054178
0.01583998
0.04607506
0.04992901
0.04706196
0.04999823
0.04704631
0.04998022
0.04608724
0.04024744
0.0362163
0.0410307
0.03388386
0.04102251
0.0338778
0.04025351
0.04607093
0.04992818
0.04705668
0.04999598
0.04704314
0.04997836
0.04608081
0.06093431
0.06222764
0.06213021
0.06113923
0.06210554
0.06111172
0.0609564
0.05853919
0.05640115
0.05935834
0.05528057
0.05933641
0.05525968
0.05855858
0.06093213
0.062227
0.06212848
0.06113886
0.06210362
0.06111095
0.06095433
0.05089487
0.06061986
0.05600782
0.05855862
0.05598376
0.05853013
0.05091629
0.03842474
0.02257245
0.02829997
0.0370422
0.03841919
0.02256859
0.02829444
0.008495091
0.01570154
0.01642525
0.001029615
0.01642278
0.001020948
0.008488747
0.01179826
0.002222026
0.002786217
0.02044814
0.01177874
0.00221989
0.002784215
0.0008309532
0.000600933
0.0005938368
0.0254891
0.03142876
0.0272883
0.03323666
0.02548324
0.03142822
0.02728757
0.02413966
0.02223283
0.0170163
0.02456009
0.01698375
0.02455415
0.02414912
0.02461758
0.04227344
0.0441946
0.0422283
0.04415667
0.05236726
0.05239165
0.01978072
0.006822288
0.01076169
0.01820253
0.0107402
0.01820309
0.01976962
0.01977895
0.006822783
0.01076192
0.0182035
0.01074054
0.01820351
0.01976786
0.001262331
0.007241008
0.007214936
0.001262055
0.007242443
0.007216088
0.009900662
0.001143671
0.01149497
0.000255634
0.01148447
0.000257584
0.009887952
0.00849452
0.01569959
0.01642502
0.001030188
0.01642083
0.001021054
0.008489891
0.009899657
0.001143684
0.01148841
0.0002556225
0.01148211
0.0002576272
0.009887247
0.01628087
0.004462547
0.01693875
0.004065231
0.004086013
0.01693527
0.01628768
0.0244089
0.02160149
0.01317718
0.02699933
0.01322023
0.02700073
0.02440383
0.01628281
0.004463526
0.01694066
0.004070642
0.01693671
0.004089348
0.01628952
0.02440422
0.02159986
0.0131765
0.02699225
0.01321952
0.02699567
0.02439993
0.01652524
0.0005192099
0.01384612
0.0005099262
0.01381522
0.0008310681
0.000600726
0.0005936965
0.01652703
0.0005191178
0.01384959
0.0005098929
0.01381753
0.01124311
0.01861945
0.0007576267
0.02280514
0.02276235
0.0007459606
0.01131653
0.01985509
0.0496713
0.02758949
0.04200309
0.02762082
0.04194639
0.0199327
0.01125284
0.01862181
0.0007575953
0.02281058
0.02276634
0.0007459835
0.01132862
0.01985459
0.04966357
0.02758865
0.04200015
0.0276189
0.04194138
0.01993974
0.02413826
0.02222946
0.01701593
0.02455541
0.01698166
0.02455147
0.02414807
0.007876995
0.006105826
0.002374357
0.0004814657
0.006104784
0.002376842
0.007878502
0.007873483
0.0004828017
0.006110683
0.002382199
0.006105005
0.002378756
0.007872411
0.0008295986
0.0005906979
0.0005926045
0.0007083511
0.008408923
0.0007009273
0.0006977137
0.00841104
0.0006996436
0.0004810882
0.008522127
0.0004811474
0.00407693
0.00811585
0.008135974
0.008137361
0.004077434
0.008135564
0.008535712
0.0004812814
0.0004811505
0.02461465
0.04227361
0.04419706
0.04222581
0.0441569
0.05236392
0.0523895
0.01978676
0.00681953
0.01072748
0.01820861
0.01978962
0.01073534
0.01820503
0.01978434
0.006819962
0.0107278
0.01820751
0.01978759
0.01073547
0.01820476
0.004837438
0.005437451
0.0002497591
0.005438099
0.004835031
0.00497097
0.006132827
0.0006042905
0.006119609
0.004980762
0.004968111
0.006113453
0.0006031951
0.006115991
0.004965524
0.004839942
0.0002505741
0.005444128
0.005438637
0.004847069
0.001493477
0.00149635
0.001261176
0.007204969
0.007212652
0.006933168
0.01324183
0.002136825
0.002132454
0.006918905
0.00212707
0.006910774
0.01323869
0.002129808
0.006915761
0.001503618
0.001497805
0.0002319156
0.0002311609
0.007880537
0.00610598
0.00237465
0.000481555
0.007879397
0.006108142
0.002378287
0.00787901
0.0004828962
0.006116613
0.002384516
0.006109265
0.002380453
0.007879074
0.004840502
0.005437953
0.0002498098
0.004835079
0.005441409
0.004974926
0.006138629
0.0006046379
0.006124012
0.004986052
0.004971383
0.006113713
0.0006035016
0.004965797
0.00611955
0.004843754
0.0002506283
0.005449842
0.005442765
0.004852363
0.001493542
0.001497137
0.001260931
0.0072051
0.00721368
0.006936026
0.01324555
0.002139084
0.006921167
0.002134068
0.002127331
0.006911365
0.01324163
0.006917668
0.002131159
0.001504901
0.001498686
0.0002320703
0.0002312987
0.0004021528
0.003257522
0.003960191
0.005908603
0.003255657
0.003949325
0.0003995995
0.0004783624
0.001880379
0.001880273
0.0001856835
0.0001649323
0.003115948
0.003137479
0.0001901754
0.001878022
0.0004770049
0.001879712
0.0001849892
0.003157226
0.0001649962
0.003144758
0.0001835811
0.0004034201
0.005902282
0.003251996
0.003927397
0.003255171
0.003942751
0.000411408
0.0004022789
0.003257428
0.003959577
0.005908415
0.0003996518
0.003255557
0.003948337
0.0004786594
0.001880026
0.001880243
0.0001857271
0.0001649357
0.003114119
0.003136298
0.0001902463
0.001878053
0.0004772653
0.001879765
0.0001850295
0.003156835
0.0001649996
0.0001836016
0.003143811
0.000403558
0.005901933
0.003251347
0.00392563
0.003254986
0.003941545
0.000411631
0.01627476
0.004460633
0.01693219
0.004088179
0.004085756
0.0169327
0.01627155
0.01605873
0.005145302
0.01132487
0.01701906
0.005162148
0.0170087
0.01607012
0.01604924
0.01699634
0.005168641
0.01133072
0.005164056
0.01700129
0.01604431
0.01627564
0.004461499
0.01693215
0.004087601
0.01693345
0.01627191
0.004088567
0.0160589
0.005146772
0.01132375
0.01701941
0.01700903
0.005162701
0.01607026
0.01604943
0.01699689
0.005167927
0.01132942
0.01604449
0.01700168
0.005164237
0.006773266
0.006769033
0.008470402
0.01557364
0.009624039
0.01557777
0.008463367
0.009467251
0.01484043
0.01390021
0.01483072
0.009474933
0.008467833
0.01558202
0.009631018
0.0155795
0.008468304
0.009462048
0.01482427
0.01389533
0.01482436
0.009459622
0.006776091
0.006792104
0.01651167
0.000505938
0.01380729
0.000508654
0.01380606
0.01327808
0.01346367
0.01325078
0.01324475
0.01345854
0.013243
0.0008297012
0.0005906652
0.0005924772
0.0007080711
0.008406792
0.0007007372
0.0006976752
0.008408855
0.0006994721
0.006773004
0.006767872
0.008469255
0.01557504
0.009622408
0.01557881
0.00846254
0.009468131
0.01484087
0.01390121
0.01483062
0.009476616
0.008466591
0.01558263
0.009629146
0.01558041
0.008466414
0.009462697
0.0148225
0.01389562
0.009458624
0.01482361
0.006775917
0.00679251
0.01651264
0.000506039
0.01380422
0.000508634
0.01380743
0.01328103
0.01346483
0.01325278
0.01324214
0.01345898
0.01324422
0.01040532
0.0003648673
0.01978348
0.01196647
0.0003666575
0.01979557
0.01039482
0.01122567
0.0186022
0.0007410443
0.02272707
0.02273409
0.0007444391
0.01121041
0.005179357
0.005226502
0.005170045
0.005161045
0.01041994
0.01198133
0.0003738873
0.01986466
0.0003676734
0.01982133
0.01048118
0.0004811381
0.008528407
0.0004811533
0.00407726
0.008114147
0.008134618
0.008136499
0.00407765
0.008134308
0.008542881
0.0004810178
0.0004811199
0.01041391
0.0003649736
0.01978455
0.01197447
0.01039529
0.0003667829
0.01980259
0.01123403
0.01860359
0.0007411773
0.02272465
0.02273526
0.0007444743
0.01121081
0.005185744
0.005234613
0.005175693
0.005161899
0.01043026
0.01199061
0.0003740547
0.01987811
0.0003678044
0.0198325
0.01049406
0.0008355871
0.000540471
0.0005385377
0.01336818
0.00682905
0.00798728
0.01258146
0.007983759
0.01257699
0.01337217
0.0133682
0.006829711
0.007987627
0.0125824
0.007984053
0.01257789
0.0133722
0.001266228
0.003552071
0.00354637
0.00126577
0.003550141
0.003544752
0.011493
0.004471001
0.01198317
0.003841013
0.003841878
0.01198139
0.01149089
0.01149438
0.004472427
0.0119847
0.003842985
0.01198282
0.003843664
0.01149248
0.01174727
0.01924934
0.01656494
0.01667329
0.01666198
0.01655629
0.01173325
0.0008357572
0.0005405287
0.0005385931
0.01174657
0.01925083
0.01656832
0.01667203
0.01655929
0.0166604
0.01173289
0.002114378
0.00158722
0.001005376
0.0004794891
0.001587433
0.001005939
0.002114114
0.002121209
0.0004869307
0.001596351
0.00101622
0.001595172
0.001014025
0.002122443
0.0008280234
0.0005321544
0.0005325039
0.003422926
0.00839476
0.0005878946
0.003435234
0.0005849345
0.000577967
0.003447396
0.008420017
0.003445483
0.0005783916
0.116193
0.00316687
0.004078432
0.04027495
0.003152084
0.04026619
0.1162397
0.1161338
0.04025061
0.003155271
0.004078073
0.003156878
0.04025084
0.1161331
0.01335653
0.006815674
0.007967874
0.01256814
0.01335628
0.007968797
0.01256853
0.01335671
0.006816034
0.007968268
0.01256809
0.01335616
0.007969255
0.01256868
0.0012139
0.00143549
0.000248505
0.001435872
0.00121362
0.001645368
0.001744413
0.0006095094
0.0002139706
0.001742071
0.0002118073
0.001650228
0.001635855
0.0002071531
0.001732812
0.0006008614
0.001733456
0.0002075195
0.001635208
0.001220417
0.0002532354
0.001444967
0.001442945
0.001221806
0.000595574
0.0005961049
0.001259577
0.003532089
0.003533523
0.0006086444
0.0006050099
0.0002350291
0.000229992
0.00211505
0.001587323
0.001005499
0.0004795553
0.00211428
0.0015879
0.001006267
0.002123385
0.0004870392
0.001597953
0.001017029
0.001596648
0.001014756
0.002124786
0.001214335
0.00143554
0.0002485414
0.001213632
0.001436331
0.001647813
0.001746777
0.0006099847
0.000214197
0.001744296
0.0002120037
0.00165294
0.001636536
0.0002071951
0.001732952
0.0006010297
0.00173404
0.001635259
0.00020759
0.001221792
0.000253299
0.001446453
0.001444272
0.001223378
0.0005956284
0.0005961626
0.001259526
0.003532155
0.003533186
0.0006087037
0.000605075
0.000235247
0.0002300667
0.0004838056
0.0009267244
0.0009251579
0.0008599667
9.475019e-05
0.0001647126
0.001630761
0.001631497
9.570742e-05
0.0008570779
0.0009166669
0.0004749492
0.0009173012
0.0008696556
0.001633773
9.570585e-05
0.0001650087
0.001633542
9.574384e-05
0.0008703391
0.0004842205
0.000927199
0.0009255875
0.0008600183
9.478595e-05
0.000164717
0.001630495
0.001631377
9.573722e-05
0.0008570823
0.0009166771
0.0004750908
0.0009174496
0.0008696837
0.001633718
9.575597e-05
0.0001650165
0.001633551
0.0008702992
9.575102e-05
0.01149901
0.004456844
0.0119797
0.003837332
0.003837555
0.0119796
0.0114981
0.01149903
0.004457214
0.01197954
0.003837321
0.01197971
0.01149789
0.003837954
0.0117474
0.01924077
0.01654725
0.01665098
0.0166534
0.01655007
0.01175069
0.008315865
0.01198203
0.009601645
0.001251526
0.01199435
0.001257454
0.008299072
0.008362081
0.001262801
0.01204098
0.009642287
0.01203713
0.00126277
0.008362116
0.0008280649
0.0005321338
0.000532499
0.003424057
0.008392894
0.0005878929
0.003436102
0.0005849318
0.0005779592
0.0034464
0.008417806
0.003444736
0.0005783781
0.01174649
0.01924106
0.01654838
0.01664909
0.01655215
0.01174885
0.0166515
0.008314779
0.01198153
0.009600275
0.001251246
0.01199372
0.001257166
0.008298087
0.008359569
0.001262589
0.01203952
0.009640223
0.01203553
0.008360393
0.001262476
0.00102005
0.0008259055
0.007611878
0.00903274
0.0008267007
0.007634464
0.001018717
0.005684334
0.005742172
0.003749895
0.008188255
0.00819937
0.005739445
0.00565931
0.005690346
0.008216591
0.0057403
0.003749747
0.008211335
0.005739817
0.005689828
0.00102266
0.009058746
0.0008290937
0.007752251
0.0008280704
0.007683949
0.001015225
0.1162066
0.003167573
0.004079045
0.04028045
0.00315262
0.04027135
0.1162528
0.1161412
0.04025139
0.003155723
0.004078214
0.1161353
0.003157052
0.04025235
0.001020373
0.0008261823
0.00761359
0.009036282
0.001019042
0.0008269734
0.007637146
0.005691017
0.005744595
0.003750299
0.008207885
0.005741077
0.008209255
0.005675019
0.005693194
0.00821802
0.005740487
0.00375002
0.005740613
0.005690812
0.008216294
0.001022737
0.009062956
0.0008290461
0.007754957
0.0008282594
0.007686859
0.001014763
0.02137758
0.01710686
0.01682153
0.02111274
0.0210924
0.01708952
0.02139543
0.02136058
0.02107272
0.01707686
0.0168096
0.0210774
0.01707765
0.0213501
0.02137756
0.01710774
0.016821
0.02111282
0.0170893
0.02109171
0.02139587
0.0213589
0.02107055
0.01707379
0.01680815
0.01707621
0.02134817
0.02107596
0.005835158
0.001025633
0.003114996
0.005828833
0.003110788
0.007344368
0.007348656
0.003106983
0.00582233
0.001023769
0.005823635
0.0031087
0.007341238
0.007340115
0.0008337199
0.000534938
0.0005371187
0.0005178174
0.0005982229
0.0005159178
0.0005123578
0.0005965187
0.0005145232
0.01336322
0.006825591
0.007977171
0.01257172
0.007980432
0.01257367
0.01336
0.01336326
0.006826176
0.007977402
0.01257243
0.007980597
0.01257448
0.0133601
0.0003048407
0.0003073808
0.001264912
0.003539226
0.003545326
0.004452683
0.007227071
0.0006381372
0.004445726
0.0006358099
0.0006323018
0.00443784
0.007223522
0.004444077
0.0006347188
0.0003104002
0.0003086453
0.0003047985
0.0003073171
0.001264485
0.003538117
0.003543791
0.004451293
0.007228503
0.0006384031
0.004444501
0.000636059
0.0006324832
0.00443702
0.007224913
0.00444297
0.0006349299
0.0003103137
0.0003085742
0.0005659701
0.0002573222
0.005112518
0.005115296
0.0005679861
0.005561187
0.005567935
0.00512561
0.0005684088
0.0002575012
0.005120941
0.0005683027
0.005559821
0.005560033
0.005840342
0.001026084
0.003115874
0.005833085
0.003111404
0.007348283
0.007353398
0.003106862
0.005822894
0.001024136
0.005826254
0.003109155
0.007343512
0.007340484
0.0005659391
0.0002573433
0.005111984
0.00511493
0.000568033
0.005561751
0.005568373
0.005125305
0.0005684629
0.0002575202
0.005120689
0.0005683686
0.00556028
0.005560222
0.01149494
0.004468621
0.003839451
0.01198015
0.003841718
0.01198048
0.01149638
0.01107445
0.003785626
0.004077326
0.01095431
0.00378904
0.01095922
0.01107026
0.01107762
0.01096877
0.00378861
0.004080386
0.003789088
0.01107994
0.01096377
0.01712358
0.01320272
0.01807364
0.01806084
0.01711826
0.01997494
0.01998502
0.01804716
0.01711159
0.01320931
0.01805205
0.01711481
0.01996852
0.01996489
0.01149611
0.004469947
0.01198121
0.003840653
0.01198173
0.003843409
0.01149728
0.01107623
0.003788016
0.004082187
0.01095561
0.003791208
0.01096034
0.01107219
0.01107905
0.01096922
0.003790062
0.004084919
0.003791121
0.01108092
0.01096459
0.01712644
0.01320185
0.01807469
0.01806181
0.01712087
0.0199763
0.01998649
0.01804779
0.01711303
0.01320828
0.01805283
0.01711686
0.01996905
0.01996476
0.005034371
0.003760531
0.005014611
0.003780441
0.005864784
0.0083311
0.0005151228
0.008289518
0.005892232
0.005853972
0.008253463
0.000513626
0.008275735
0.005834413
0.005044653
0.003813072
0.003790125
0.005067601
0.0008338824
0.0005349705
0.0005371737
0.0005179191
0.0005980386
0.0005160109
0.0005124169
0.000596349
0.0005146137
0.005036315
0.003762309
0.005016302
0.003782604
0.005867102
0.008334945
0.0005150489
0.008293188
0.005894675
0.0058562
0.008256534
0.0005135613
0.008279284
0.005836377
0.005046678
0.003815542
0.003792403
0.005069762
0.01077475
0.008207628
0.0007522779
0.003270425
0.008184145
0.003247554
0.01080041
0.01075068
0.003223555
0.00814773
0.0007507354
0.008163385
0.01072932
0.003239508
0.01078263
0.008213847
0.0007522628
0.003275213
0.008190139
0.003251983
0.01080858
0.010758
0.003227154
0.008152747
0.0007507287
0.008168966
0.01073586
0.003243777
0.002115127
0.0004798526
0.001589881
0.001008473
0.002117054
0.001588381
0.001006659
0.002119995
0.0004857906
0.001592016
0.001010009
0.002118036
0.001593377
0.001012516
0.000828532
0.0005338357
0.0005329132
0.0005096185
0.0005910906
0.0005099587
0.0005112733
0.000591529
0.000510361
0.002621359
0.0007054443
0.002628571
0.008398067
0.003443874
0.000580771
0.003437354
0.0005834342
0.0007037379
0.002633202
0.002630252
0.00263461
0.0006981209
0.002634031
0.008416849
0.003443475
0.0005797688
0.003444262
0.0005787932
0.0006985451
0.002633116
0.00263341
0.0006932059
0.04841707
0.04841439
0.0006946141
0.001918735
0.002585938
0.000481083
0.01536987
0.01536926
0.002587413
0.001918639
0.0005010252
0.002021147
0.002022491
0.0005011295
0.00191981
0.01536751
0.0004811179
0.002593317
0.01536861
0.001922644
0.00258996
0.0005016033
0.002028691
0.0005032505
0.002023957
0.0006930687
0.04841256
0.048413
0.0006926444
0.1200279
0.068696
0.1200225
0.06868173
0.1194325
0.01225522
0.01224054
0.1194422
0.1161919
0.004077104
0.0031545
0.04025475
0.1161561
0.003154017
0.04025921
0.1174083
0.04371933
0.008129376
0.04526045
0.04553988
0.04370502
0.1174414
0.1194322
0.01224571
0.1194215
0.01224694
0.1174076
0.04558534
0.04369677
0.008133727
0.1173831
0.04555618
0.04369974
0.1200286
0.06824853
0.06867326
0.1200288
0.1200195
0.06869513
0.06868807
0.1200225
0.1173672
0.04368845
0.008137035
0.04557614
0.04557725
0.04368834
0.1173668
0.1194148
0.0122485
0.01226129
0.1194146
0.1161364
0.004078066
0.0031551
0.04025377
0.1161563
0.003157334
0.04025212
0.1194155
0.01224762
0.1194215
0.01226311
0.1173691
0.0455838
0.008136082
0.04369203
0.0455773
0.1173832
0.04368862
0.1200196
0.06868603
0.06868659
0.1200196
0.0006985934
0.04841602
0.0006957607
0.04839395
0.001931931
0.00263218
0.0004807976
0.01507269
0.01533131
0.002616761
0.001942449
0.0005077366
0.00206331
0.002046836
0.0005116129
0.001929052
0.01536575
0.002598943
0.0004809525
0.001924534
0.01534378
0.002606707
0.0005066875
0.002032651
0.0005042942
0.002042492
0.0007007741
0.04779244
0.04838159
0.0007057393
0.01335806
0.006817535
0.007973557
0.01257027
0.01335877
0.007970849
0.01256944
0.0133583
0.006817911
0.007973826
0.0125708
0.01335887
0.00797114
0.01256976
0.001188636
0.001167678
0.001167759
0.001188323
0.001214381
0.0002488028
0.001438617
0.001436418
0.001216038
0.001189022
0.001169957
0.001168095
0.001190935
0.001643533
0.0006082127
0.00173811
0.0002090455
0.001740414
0.001640455
0.0002110444
0.001452734
0.001190635
0.00118931
0.00145651
0.001451194
0.001185663
0.001448009
0.001188314
0.001444075
0.001182517
0.001182824
0.001443547
0.001636602
0.0006013774
0.001735977
0.0002085852
0.001734337
0.00163887
0.0002077985
0.001444606
0.001184754
0.001183189
0.001446649
0.001219317
0.0002521952
0.001439881
0.001441894
0.001217207
0.001194812
0.001175091
0.001174064
0.001196291
0.001193952
0.001171147
0.001191906
0.001172875