/*--------------------------------*- C++ -*----------------------------------*\
| =========                 |                                                 |
| \\      /  F ield         | OpenFOAM: The Open Source CFD Toolbox           |
|  \\    /   O peration     | Version:  v1706                                 |
|   \\  /    A nd           | Web:      www.OpenFOAM.com                      |
|    \\/     M anipulation  |                                                 |
\*---------------------------------------------------------------------------*/
FoamFile
{
    version     2.0;
    format      ascii;
    class       volScalarField;
    location    "440";
    object      epsilon;
}
// * * * * * * * * * * * * * * * * * * * * * * * * * * * * * * * * * * * * * //

dimensions      [0 2 -3 0 0 0 0];


internalField   nonuniform List<scalar> 
32305
(
0.04804424
0.03324757
0.03656413
0.03938819
0.04207533
0.04448264
0.04657604
0.04838376
0.04994972
0.05131776
0.05252863
0.05361998
0.05462587
0.05557756
0.05650342
0.05742982
0.05838065
0.05937891
0.06044745
0.06160193
0.06282688
0.06414429
0.06557336
0.06713136
0.06883251
0.07068524
0.07268957
0.07482782
0.077056
0.07930945
0.08156221
0.08381486
0.08421548
0.1417893
0.02664649
0.03463518
0.03620166
0.03507794
0.03350567
0.03223676
0.0313963
0.03090906
0.03067184
0.03059984
0.0306349
0.0307416
0.0309006
0.0311045
0.03135357
0.03165402
0.0320173
0.03245799
0.03299721
0.03365111
0.03442048
0.0353525
0.03649521
0.03792833
0.03975697
0.04208502
0.04505899
0.0488718
0.05377172
0.06002456
0.06763313
0.07535271
0.07869386
0.06728408
0.0338231
0.03684755
0.0379055
0.03541763
0.03321551
0.0317465
0.03108602
0.03104178
0.03139577
0.03195744
0.03257972
0.03315676
0.03361918
0.0339285
0.03407008
0.03404689
0.03387358
0.03357362
0.03317783
0.03271209
0.0322508
0.03188646
0.03173233
0.03192413
0.03262677
0.03403597
0.03637748
0.03991146
0.04497479
0.05205683
0.06165349
0.07327965
0.08311094
0.08759709
0.0381255
0.03676147
0.03740129
0.03445805
0.03229935
0.03113205
0.03101626
0.03168063
0.03284424
0.03425984
0.03572354
0.03706922
0.03816776
0.03892618
0.0392848
0.03921125
0.03869462
0.03774878
0.03639032
0.0347195
0.03286044
0.03096977
0.02922454
0.02783237
0.02704436
0.02716044
0.02851087
0.0313938
0.0360638
0.04298187
0.05298438
0.06633677
0.08135004
0.1032467
0.04090924
0.03533597
0.03548751
0.0325296
0.03048957
0.02951457
0.02966715
0.03063104
0.03211833
0.03389742
0.03578164
0.03760815
0.03923521
0.04054418
0.04143501
0.0418141
0.04159394
0.04067946
0.03904113
0.03679432
0.03406701
0.03106938
0.02805171
0.0253179
0.02323313
0.02223376
0.02280704
0.0253461
0.02997012
0.0370217
0.04746261
0.06209407
0.08145045
0.1177262
0.04263465
0.03335474
0.03296591
0.03015883
0.0282458
0.02735398
0.02750877
0.0283633
0.0296403
0.03115707
0.0327872
0.03442128
0.03596073
0.03732232
0.03842986
0.03919502
0.03948895
0.0391364
0.03807583
0.03622638
0.03365301
0.03051598
0.02706674
0.02365293
0.0207285
0.01887178
0.01877819
0.02104785
0.02572304
0.03310835
0.04410137
0.05997462
0.08302021
0.1316858
0.04353589
0.03128441
0.03039911
0.02781149
0.02601827
0.02515866
0.02517505
0.02571673
0.02653715
0.02750568
0.0285617
0.02966351
0.03077197
0.03185494
0.03288194
0.03380352
0.03445867
0.0347343
0.03436441
0.03317235
0.03115829
0.0284404
0.02524284
0.02188344
0.01879427
0.0165703
0.01601421
0.01794452
0.02256251
0.03041112
0.04234597
0.05981067
0.08634132
0.1455308
0.04379623
0.02936022
0.02806697
0.02571011
0.02401916
0.02313971
0.02295504
0.02313935
0.02349364
0.02393366
0.02444788
0.02505439
0.02577101
0.02661249
0.02759134
0.02867771
0.0298096
0.03069919
0.03095844
0.03033748
0.02878961
0.02644867
0.02356217
0.02044511
0.01749107
0.01522821
0.01439673
0.01584999
0.02021369
0.0285104
0.04158481
0.060935
0.09105411
0.1596036
0.04355908
0.02765674
0.02605173
0.02390197
0.02228584
0.02134364
0.02093757
0.02079147
0.02075676
0.02078786
0.02089977
0.02114995
0.02160334
0.02231862
0.02335944
0.02473124
0.02638626
0.02792572
0.0288428
0.0287617
0.02760083
0.02553863
0.02288368
0.01997434
0.01718524
0.01497144
0.01391944
0.01475514
0.01862046
0.02737107
0.04161467
0.06311443
0.09707118
0.1742807
0.04293491
0.02616622
0.02433659
0.02236142
0.02079611
0.01977192
0.0191594
0.0187339
0.01839645
0.01813187
0.01796314
0.01796636
0.01824008
0.01888004
0.01998826
0.0216862
0.02387695
0.02610931
0.02773814
0.02821996
0.02743084
0.02560804
0.02315891
0.0204436
0.017818
0.01566212
0.01440066
0.01464222
0.01788839
0.02700092
0.04230207
0.06634721
0.1045425
0.1900016
0.04200548
0.02485529
0.02287574
0.02105019
0.01952227
0.01841798
0.01763387
0.01699117
0.01642417
0.01594844
0.01558317
0.01540916
0.01554684
0.01612579
0.01727554
0.01921571
0.02188377
0.02479526
0.02713733
0.02818404
0.0277942
0.02627983
0.02407447
0.02156206
0.01908072
0.01695733
0.01554717
0.01542374
0.01813036
0.02727077
0.04375668
0.07088556
0.1138345
0.2073152
0.0408486
0.02370222
0.02162762
0.01993922
0.01844458
0.01727314
0.01635616
0.01555746
0.01482968
0.01420291
0.01370188
0.01340614
0.01344992
0.01398927
0.01515382
0.01718248
0.02012954
0.02365957
0.0267616
0.02843058
0.02845755
0.02723831
0.02527351
0.02296188
0.02061246
0.0185039
0.01697772
0.01668446
0.01934895
0.02882633
0.04676078
0.07731927
0.1255762
0.2269416
0.03968817
0.02276308
0.02056645
0.01900725
0.01755432
0.01633415
0.01531661
0.0144141
0.01358946
0.01286825
0.01228149
0.0119059
0.01187439
0.01231755
0.01343248
0.01548287
0.01869932
0.0228794
0.02674251
0.02893095
0.02922232
0.02818274
0.02641342
0.02430961
0.0221301
0.02009774
0.01855807
0.01833068
0.02149763
0.03215185
0.05249583
0.08695285
0.1410292
0.2498988
0.03848637
0.02199626
0.01969931
0.01826579
0.01686269
0.01560911
0.01451562
0.01354607
0.01267093
0.01190266
0.01127141
0.01084759
0.01075668
0.01111447
0.01214884
0.01421404
0.01779563
0.02281946
0.02751037
0.03000545
0.0302296
0.02909154
0.0273409
0.0253684
0.02338168
0.02155538
0.02027265
0.02071815
0.02574823
0.03928601
0.06283216
0.1013735
0.1617624
0.2777092
0.03721395
0.02137552
0.01904846
0.01775048
0.01640963
0.01513478
0.01397932
0.0129606
0.01206084
0.01127991
0.01063796
0.01019162
0.01003757
0.01031547
0.0112885
0.01347445
0.01775165
0.02425675
0.0301963
0.03265292
0.0321708
0.03045291
0.02842728
0.02641638
0.02457863
0.02314894
0.02278887
0.02559862
0.03520729
0.05355194
0.08076415
0.1235102
0.1908169
0.3126954
0.0358423
0.02088507
0.01864648
0.0175167
0.0162626
0.01498019
0.01377006
0.01270341
0.01178459
0.01100482
0.01036796
0.009911241
0.009715608
0.009926619
0.01089579
0.01340948
0.01903018
0.0285399
0.03745615
0.03976128
0.03771318
0.03445749
0.03129252
0.0285946
0.02664588
0.02642691
0.03001232
0.04029074
0.05801163
0.08136893
0.1117321
0.1588428
0.2341198
0.3584438
0.03432747
0.02050932
0.01852623
0.01763341
0.01651273
0.01524421
0.01398473
0.01286167
0.01190863
0.01111793
0.01048012
0.01001439
0.009802818
0.009986496
0.01106145
0.01426521
0.02238301
0.03923625
0.05673481
0.05716527
0.05239723
0.04640691
0.04141999
0.03833784
0.03825375
0.04788236
0.06771176
0.08927712
0.1114307
0.1360696
0.1671536
0.2188121
0.3034436
0.4207627
0.03257695
0.02021483
0.0187169
0.01819452
0.01729067
0.01606428
0.01476165
0.01356074
0.01253763
0.01170102
0.01104157
0.01058226
0.01037378
0.01057935
0.011891
0.01627102
0.02805142
0.04337681
0.09515349
0.1054515
0.09802518
0.0867417
0.08683772
0.1004216
0.1378592
0.1665151
0.1879098
0.2046436
0.2211509
0.241753
0.2707593
0.325768
0.4169494
0.5108357
0.03043109
0.01993972
0.01923668
0.01933062
0.01879144
0.01767264
0.01633106
0.01500904
0.01385407
0.01291589
0.01219728
0.01172825
0.01153353
0.01178658
0.01339988
0.01913263
0.03622711
0.07025899
0.2057354
0.2348885
0.1907093
0.4568364
0.3756666
0.3544075
0.3646971
0.3870215
0.4109651
0.4317905
0.4469539
0.462181
0.4842932
0.5252623
0.6035439
0.6625017
0.02770045
0.01970834
0.02034403
0.0215039
0.02155788
0.02051165
0.01906316
0.01753662
0.01616729
0.01506017
0.01422648
0.01368628
0.01346021
0.01371959
0.01549185
0.02173159
0.03823656
0.07620868
2.375244
1.367864
1.132719
1.029014
1.069612
1.164863
1.255111
1.301441
1.29133
1.235026
1.161593
1.144811
1.078756
0.9391881
0.9560941
0.05561108
0.01977489
0.02148769
0.02489532
0.02653546
0.02617434
0.02430359
0.02220856
0.02035384
0.01888178
0.01777524
0.01704137
0.01666513
0.01679957
0.01830546
0.0231686
0.03334906
0.04359806
0.08331834
0.3120332
0.6033409
1.470292
3.700727
5.812992
6.404398
6.337987
5.871793
5.002765
3.901505
2.791746
1.82236
1.092075
0.6823673
0.6486504
0.03717694
0.01952799
0.02165486
0.02737367
0.03403143
0.03892992
0.03434782
0.03098765
0.02836316
0.02631236
0.02468854
0.02354937
0.02279469
0.02245504
0.02294824
0.02522679
0.02896422
0.02916307
0.1016669
0.4112275
0.7348822
1.160493
1.756212
2.271898
2.50734
2.519318
2.367178
2.099938
1.748663
1.367253
1.000598
0.6944229
0.4910019
0.4321419
0.03627914
0.01864447
0.02069582
0.03029788
0.1411644
0.09702489
0.07372723
0.06623185
0.06047209
0.05558409
0.05109816
0.04710016
0.04341723
0.03986975
0.03631094
0.03255488
0.02820409
0.0256625
0.1610309
0.423059
0.6610104
0.8718726
1.046119
1.156691
1.196301
1.178917
1.130123
1.061006
0.9678595
0.8636187
0.7579574
0.6604085
0.5578676
0.7752476
0.1036702
0.1454252
0.1898086
0.09519842
0.1037093
0.1454934
0.189957
0.1505026
0.08156896
0.6527766
0.0702833
0.1506259
0.08158258
0.6529956
0.2440767
1.84632
0.2059394
0.2442324
1.847208
0.2191764
2.579274
0.2351677
0.2193042
2.58173
0.834546
0.06000889
0.08026901
0.07622515
0.8347861
0.06001667
0.08026597
0.1124792
0.3188478
2.376714
0.1124646
0.3191599
0.252879
0.3228594
0.4133226
0.2527533
0.3231437
0.413713
0.2918391
0.07073024
0.1047866
0.08334644
0.2920352
0.07073884
0.1047975
0.01967544
0.03625171
0.01966084
0.0192782
0.01862543
0.01927538
0.02503331
0.02069625
0.02503726
0.08687911
0.03030515
0.08694728
2.240481
0.2051476
0.2434741
0.2757896
0.2420474
0.2735625
2.241914
2.411224
0.375039
0.3735865
0.5356368
0.3028668
0.3035646
0.5432611
1.110343
1.132472
2.099655
1.368372
1.110715
1.132639
2.100205
0.3904755
0.307513
0.3758803
0.3123996
0.390756
0.3075597
0.3759558
0.02227948
0.0353747
0.02064581
0.03717155
0.02228278
0.03538346
0.02064991
0.01958398
0.01880684
0.01923204
0.01952991
0.0195858
0.01880914
0.01923421
0.0231159
0.02136513
0.02389762
0.02165792
0.0231188
0.02136788
0.02390078
0.03112427
0.03048152
0.04326402
0.02737855
0.03112881
0.0304856
0.04327077
0.07998095
0.07985214
0.02562899
0.03626458
0.02740933
0.0333959
0.02739892
0.03335539
0.02564118
0.01790028
0.01863243
0.01827903
0.01822548
0.0182713
0.01821779
0.01791394
0.0206499
0.02068778
0.02108786
0.02005666
0.02107916
0.02004896
0.0206666
0.03739914
0.03029165
0.0361334
0.02911706
0.03612532
0.02910842
0.03742295
0.1360953
0.6559262
0.2251538
0.1466027
0.2232873
0.1461061
0.1366061
0.1361724
0.6559414
0.2253092
0.14668
0.2234058
0.1461674
0.1366748
4.448572
0.2428302
0.2538589
0.7644573
0.252325
0.7463512
4.438843
1.863276
0.2975346
0.2947236
1.988289
1.955355
2.241085
0.2052753
0.2436345
0.2758072
0.2421977
0.2736628
2.243476
4.449639
0.2429731
0.2540076
0.7667353
0.2524561
0.7465667
4.442364
1.863234
0.2975728
0.2948272
1.994384
1.955969
0.2360058
0.9846632
14.03263
0.9680196
14.09374
0.2383957
0.2361374
0.9874153
14.03071
0.9683293
14.09483
0.2386241
0.1284977
0.8426216
0.1449331
0.3343032
0.1445167
0.3351232
0.128869
0.1285584
0.8425857
0.1449798
0.3342504
0.1445574
0.3351015
0.1289156
0.1122525
0.338855
0.2483204
0.3376452
0.2456142
0.3135986
0.2689521
0.265237
2.411096
0.3749212
0.3736087
0.1122816
0.3387485
0.248392
0.33765
0.2457767
0.3139335
0.2690666
0.2654246
0.9188268
0.253019
0.3275024
4.678253
0.3283437
4.678434
0.920892
0.4609435
0.3178553
0.3371474
0.3356706
0.4671255
0.5361798
0.3028389
0.3035585
0.5437214
0.9195927
0.2530149
0.3274649
4.679411
0.3283428
4.679961
0.9221043
0.4613904
0.3181828
0.3374565
0.3359363
0.4674119
0.1177737
0.2901596
0.2291822
0.1569975
0.2283344
0.1571243
0.1177067
0.1177895
0.2903882
0.229335
0.1570173
0.2284689
0.1571474
0.1177148
0.02009314
0.01966573
0.02043516
0.01907485
0.02042841
0.01906644
0.02010375
0.02563987
0.03625463
0.02740921
0.03329237
0.02740182
0.03331597
0.02566079
0.02010061
0.01966129
0.02043604
0.01906943
0.02043017
0.01906536
0.02011564
0.01822373
0.01927006
0.0186622
0.01898041
0.01865347
0.01897277
0.01823794
0.01790352
0.01862621
0.01827789
0.0182234
0.0182721
0.01821806
0.01791571
0.01822681
0.0192705
0.0186589
0.0189824
0.01865337
0.01897488
0.01823926
0.02217891
0.02502514
0.02285958
0.02455845
0.02284992
0.0245497
0.02219607
0.02065504
0.02068974
0.02109115
0.02006267
0.02108216
0.02005284
0.02067147
0.02218394
0.02502882
0.02286208
0.02456406
0.02285259
0.02455362
0.02220063
0.03740659
0.03029685
0.03614682
0.02912476
0.03613305
0.02911335
0.03743047
0.1030556
0.1861735
0.1647563
0.1055057
0.1030861
0.1863114
0.164828
0.2423999
0.2338797
0.2292725
0.5017217
0.2288806
0.4900585
0.2442959
0.3853088
1.113605
0.8486833
0.1908026
0.3862233
1.11463
0.8495974
2.399494
1.690519
1.701269
0.05323526
0.03230601
0.03237873
0.0436045
0.05325954
0.03230869
0.0323822
0.08076112
0.08326247
0.1873569
0.06232619
0.1870844
0.06229844
0.08075817
0.3104336
0.3466542
0.273257
0.346417
0.2732542
0.3100729
0.3103677
0.2094344
0.6543859
0.395173
0.2384763
0.3940412
0.2378296
0.2105081
0.2095552
0.6545509
0.3954871
0.2385133
0.3942925
0.2378769
0.2106267
1.856984
0.5400036
0.5384754
1.857567
0.5402153
0.5386702
0.2277777
2.58642
0.3712559
8.893687
0.3717195
8.974446
0.2289631
0.2425322
0.2340048
0.2294375
0.5029306
0.2290018
0.4902729
0.2444684
0.2278897
2.587557
0.3720737
8.893256
0.3720293
8.975241
0.2291356
0.2809713
0.8397878
0.2620461
0.7017247
0.700666
0.2616334
0.2810456
0.1087956
0.08005901
0.2671064
0.07351422
0.2674627
0.07335603
0.1090517
0.2809561
0.8399797
0.2620302
0.7010049
0.2616308
0.7001892
0.2810187
0.1088428
0.0800835
0.2670346
0.07355564
0.2674307
0.07338581
0.1090919
0.3156989
2.317593
0.3160997
2.300522
0.3130103
2.400452
1.688727
1.700033
0.3160284
2.316275
0.3163058
2.300013
0.3132386
0.4283595
0.3198068
1.814618
0.3513021
0.3500545
1.797758
0.43337
0.41175
0.4129009
0.5902372
0.3422086
0.5887481
0.34174
0.4151694
0.4285118
0.3201556
1.814343
0.3516632
0.3504245
1.797889
0.4334291
0.4121615
0.4131806
0.5907313
0.3425378
0.5890978
0.3419818
0.4155697
0.08077644
0.0832916
0.1874646
0.06234643
0.1871739
0.06231222
0.08076932
0.4077475
0.4392922
0.8802892
2.240905
0.4406325
0.8822708
0.4071333
0.4092239
2.238989
0.4444139
0.8894281
0.4415894
0.8834561
0.4110085
2.403858
1.707292
1.703751
1.447665
0.3738872
1.456396
1.461096
0.3738421
1.458301
11.55118
0.5375346
11.55365
0.3035663
0.1658039
0.1656632
0.1657625
0.3035573
0.1657362
0.5389969
11.59505
11.55693
0.3106703
0.3468724
0.2733332
0.3465876
0.2733128
0.3101659
0.310458
0.2086895
0.6549641
0.3934756
0.2369638
0.2083327
0.3938574
0.2373083
0.2088017
0.6551011
0.393567
0.2370277
0.2084054
0.3940832
0.2373609
0.4121945
0.4483694
4.445584
0.4497983
0.411182
0.3935823
0.3343121
0.7512239
0.3317904
0.396713
0.3929324
0.3298712
0.7502984
0.3311814
0.3918832
0.4131586
4.439193
0.4537966
0.4507805
0.4164508
1.21329
1.215656
1.859171
0.5382104
0.5384438
0.546371
0.2958563
1.033087
1.026753
0.5446683
1.024114
0.5437922
0.2955107
1.026035
0.5443668
1.224849
1.216424
1.963506
1.963676
0.4078392
0.439477
0.8805197
2.242148
0.4072601
0.4407228
0.8822508
0.4092513
2.240304
0.4444171
0.8891946
0.4416485
0.8833843
0.4109997
0.4123054
0.4485264
4.448283
0.4113484
0.4498945
0.3936864
0.3344611
0.7526564
0.3319354
0.3967978
0.3930504
0.3300225
0.7515835
0.392014
0.3313285
0.413252
4.442066
0.4538171
0.4508505
0.4165132
1.213601
1.215606
1.859693
0.5382934
0.5386288
0.546263
0.2959166
1.032559
0.5446327
1.026491
1.024321
0.5438598
0.2955834
0.5443606
1.025869
1.224477
1.216325
1.96733
1.967091
0.45818
0.283324
0.220752
0.2366106
0.2847796
0.2217481
0.4550528
0.9731405
0.3386642
0.3341286
0.945425
14.08078
0.2170441
0.2151784
0.964316
0.3310098
0.9725274
0.3329879
0.9448274
0.2135766
14.08648
0.214631
0.9386524
0.4588212
0.2375768
0.2886106
0.2241287
0.2857905
0.2224105
0.4672622
0.4585851
0.2834743
0.2208675
0.2367811
0.4552113
0.2850506
0.2219349
0.9748893
0.3393151
0.3345834
0.9460293
14.07946
0.2172909
0.2153741
0.9652744
0.3311786
0.9740625
0.3333628
0.9453892
0.2136743
14.08536
0.9389235
0.214804
0.4592639
0.2377816
0.2890295
0.2243912
0.2861074
0.2226213
0.4679706
0.2810456
0.8404412
0.2611938
0.7011891
0.7008109
0.2613621
0.2811431
0.2842771
0.6185303
0.3349453
0.2373584
0.6176188
0.237595
0.2840186
0.2846216
0.2379606
0.6176319
0.3350163
0.6176015
0.2378206
0.2848474
0.2810549
0.8406164
0.2612248
0.7011633
0.2613736
0.2811575
0.7003954
0.284336
0.6184639
0.3348978
0.2373986
0.2376352
0.6175905
0.2840737
0.2846693
0.2379807
0.6176369
0.3349744
0.2848724
0.2378516
0.6175824
0.3620881
0.3615883
0.3216133
0.1886333
0.3381468
0.1887912
0.3239577
0.3080379
0.2190149
0.2467211
0.2187963
0.3095644
0.3215151
0.1888611
0.3379687
0.1888176
0.3208989
0.3077842
0.2184454
0.2464632
0.2186428
0.3072776
0.362312
0.3646582
0.3152012
2.29619
0.3108342
2.302839
0.3124565
0.3131951
0.2667786
0.3103354
0.3082329
0.2663731
0.3097963
2.404706
1.706953
1.70264
1.445921
0.3738178
1.455188
1.460814
0.3737816
1.457211
0.3621496
0.3617016
0.3217104
0.1885299
0.3380688
0.1887124
0.3240893
0.308018
0.2191026
0.2468193
0.2188904
0.309517
0.3216103
0.1888407
0.337908
0.1887522
0.3210035
0.3077808
0.2185377
0.2465774
0.3073529
0.2187332
0.3623745
0.3647558
0.3155389
2.297436
0.3111236
2.302513
0.3126994
0.3133888
0.2669164
0.3105462
0.3084963
0.2665246
0.3100199
0.4810518
3.021883
0.3800453
0.4624373
3.023332
0.3808209
0.4801993
0.4277749
0.3193384
1.792685
0.3483318
0.3491795
1.798745
0.4265549
0.6340829
0.6410085
0.6332455
0.6315301
0.4821994
0.4635906
3.042879
0.3833695
3.022723
0.3820901
0.4868986
11.55333
0.5380183
11.55735
0.3035529
0.1658227
0.1656868
0.16578
0.3035484
0.1657607
0.5394659
11.60098
11.56109
0.4813009
3.024429
0.3803921
0.4628024
0.4805837
3.026499
0.381123
0.4279859
0.319693
1.793573
0.348662
0.349531
1.798968
0.426933
0.6341302
0.6408711
0.6333746
0.6319804
0.4823781
0.4639238
3.047047
0.3836037
3.02602
0.3823489
0.4869694
2.383348
2.48458
2.497624
0.3417505
0.6531437
0.5550491
0.3740548
0.554902
0.373811
0.3421869
0.3418814
0.6533437
0.555337
0.3741054
0.5551803
0.3738626
0.34232
1.849047
0.9784512
0.977825
1.849867
0.9785967
0.9779862
0.4284139
0.8365276
0.4013878
0.8830161
0.8849938
0.4012533
0.4285121
0.4284905
0.8367515
0.4014126
0.883445
0.401281
0.8854047
0.428587
0.2672607
0.1123785
0.1645215
0.1603673
0.160329
0.1645432
0.2685532
2.384732
2.485363
2.498388
0.267312
0.1123803
0.1644443
0.160441
0.1644817
0.1604039
0.2686061
0.8080739
0.8587369
1.282472
2.240909
0.8593621
1.28325
0.80795
0.8147631
2.23923
0.8688805
1.293891
0.8664354
1.289369
0.8172138
2.409447
2.531832
2.529674
0.6713834
0.3743821
1.62715
0.6703133
1.62916
1.643357
0.6698608
0.3736739
0.6699572
1.642236
0.01045381
0.3960767
0.3033684
0.03203732
0.3980997
0.03205577
0.01044988
0.01046019
0.0321165
0.3976595
0.3035409
0.3974546
0.0321141
0.01046035
0.3406255
0.6557497
0.5554854
0.3730819
0.3406138
0.5554493
0.3731345
0.3407072
0.6558074
0.5555267
0.3731304
0.3406674
0.5555379
0.3731877
0.772013
0.8618189
4.449583
0.8625899
0.7714819
0.4460952
0.4019279
0.7582545
2.811314
0.4003915
2.798504
0.4489979
0.441037
2.78097
0.39464
0.7470776
0.3949088
2.780981
0.4407744
0.778601
4.431654
0.872798
0.8693786
0.7831756
1.860716
1.861414
1.862295
0.9810036
0.9807726
1.866652
1.861735
1.974772
1.956948
0.8082655
0.8590345
1.282754
2.241777
0.8081651
0.8596057
1.283468
0.8147013
2.240732
0.8690019
1.293815
0.8665763
1.28938
0.8171191
0.7722591
0.8620868
4.45139
0.7717769
0.8628485
0.4464433
0.4023781
0.7602661
2.820104
0.4008138
2.806241
0.4493805
0.441238
2.781831
0.3948046
0.7477564
0.3951083
0.4409445
2.783535
0.7788648
4.435002
0.8729882
0.8695897
0.7834334
1.861151
1.861902
1.862472
0.9810377
0.9808465
1.867199
1.86234
1.980149
1.958743
0.9791984
0.504983
0.5013541
0.2717
24.46757
14.05124
0.301767
0.3023773
24.70043
0.2744523
0.4924026
0.9689264
0.4930841
0.2663619
0.3015881
24.68436
14.08966
0.3017558
24.66125
0.2660537
0.9816452
0.5062431
0.5024733
0.2717874
24.45737
14.04916
0.3020504
0.3026207
24.69259
0.2745233
0.4926077
0.9697463
0.4934896
0.2664546
0.3016724
24.67553
14.08932
0.3018581
0.2661387
24.65897
0.4285343
0.8421087
0.4010154
0.8923657
0.8916112
0.4010343
0.4286275
0.4285828
0.8421816
0.4010489
0.8923022
0.401071
0.4286547
0.8917252
0.2670439
0.1123242
0.1645584
0.1603051
0.1603367
0.1645762
0.2666314
0.3565385
0.2794081
0.3386451
0.9731686
0.2793258
0.9695964
0.3570849
0.3547628
0.9685355
0.2788316
0.3377187
0.2788662
0.9682904
0.3547091
2.409725
2.531461
2.52954
0.6707255
0.3742835
1.627137
0.6697255
1.629138
1.64316
0.6699073
0.373659
0.6698302
1.642052
0.2671004
0.1123393
0.1645527
0.1603602
0.1645401
0.2667035
0.1604034
0.3564895
0.2792806
0.3385435
0.9734148
0.2792055
0.9698207
0.3570304
0.354797
0.9685603
0.2788185
0.3377003
0.2788338
0.3547474
0.9683376
6.724073
7.468495
2.286139
0.9192541
7.472699
2.279597
6.722365
0.2536129
0.2222904
0.3282768
0.1649351
0.1648628
0.222499
0.2544979
0.2535653
0.1646496
0.2226208
0.3283272
0.1647144
0.2225877
0.2536973
6.731547
0.9197199
7.496244
2.234009
7.479994
2.261806
6.747169
0.01045259
0.3960023
0.3033439
0.03203806
0.3980463
0.0320564
0.01044876
0.01045945
0.03211608
0.3976054
0.3035329
0.01046016
0.3974379
0.03211382
6.726795
7.470649
2.287502
0.9201325
6.724471
7.475319
2.281511
0.2533649
0.2222726
0.3282568
0.1645345
0.2224847
0.1646677
0.2538383
0.2534732
0.1646225
0.2226204
0.3283135
0.2225843
0.2536628
0.1646191
6.734387
0.9207432
7.499108
2.236976
7.482815
2.264255
6.749396
0.1799253
0.258746
0.2288254
0.1572275
0.1571244
0.2581994
0.1801796
0.1799167
0.1570321
0.2574782
0.2286022
0.1570949
0.2578391
0.179973
0.1800168
0.2589144
0.2289836
0.1573031
0.2583775
0.1572033
0.1802603
0.1800092
0.1570944
0.2576342
0.2287495
0.2580048
0.1800351
0.1571659
0.3138665
0.4940356
0.3063292
0.3125109
0.3033162
0.2816814
0.2827662
0.3010232
0.310465
0.4924999
0.311309
0.3025468
0.2808149
0.2803143
2.389237
2.518423
2.505352
2.380659
1.693217
2.393085
2.412273
1.696144
2.400279
0.341463
0.6537583
0.5549302
0.3733682
0.5548781
0.3735849
0.3412157
0.3415889
0.6539425
0.5551616
0.3734237
0.5551432
0.3736385
0.3413332
6.430584
6.404986
1.851625
0.9791319
0.9779997
0.8222926
0.5392073
3.168589
0.82161
3.162696
3.16331
0.8219643
0.5390132
0.8215992
3.163203
6.399931
6.391252
6.42784
6.400908
1.852407
0.979301
0.9781753
0.8224439
0.5394201
3.163361
0.8217761
3.158262
3.160433
0.8221323
0.5392251
0.8217703
3.159259
6.394439
6.386728
4.668829
8.956541
0.2393029
0.2394867
4.678059
0.3542982
0.3533359
0.2396292
4.686966
8.965906
0.2396528
4.683481
0.35491
0.3552517
0.3140286
0.4948575
0.3067311
0.3126683
0.3036279
0.2818372
0.2829233
0.3011779
0.3106083
0.4931646
0.3114583
0.302818
0.2809664
0.2804243
4.668602
8.955854
0.2395419
0.2396744
4.677171
0.3546625
0.3538085
0.2397243
4.686892
8.965341
0.2397889
4.683405
0.3551507
0.3553667
0.4283635
0.8373386
0.8887969
0.4010633
0.8857986
0.4011502
0.4283789
0.4620549
0.8607633
0.7009761
0.4620143
0.8624266
0.4619669
0.4621119
0.4620737
0.4619654
0.8656065
0.7007628
0.8631371
0.4621556
0.4619361
0.1654167
0.267358
0.1901056
0.1902531
0.16553
0.1322358
0.1322941
0.1904765
0.1657075
0.2673709
0.1904009
0.1656343
0.1322491
0.1322808
0.4284414
0.837558
0.4010994
0.8891262
0.4011821
0.8861947
0.428457
0.4620847
0.8609331
0.7003245
0.4621111
0.862585
0.4620637
0.4621379
0.4621123
0.4620548
0.8657445
0.7001483
0.8632922
0.4622023
0.4620308
0.1653444
0.2672968
0.1901309
0.1902796
0.1654694
0.1322505
0.132304
0.1904948
0.165694
0.2673176
0.1904255
0.1655958
0.132271
0.1323004
0.540825
0.5717369
0.5391413
0.574068
0.5031458
0.4134362
2.305149
0.4103165
0.5076172
0.5025571
0.4072044
2.304826
0.4097654
0.5008475
0.5419396
0.5780047
0.5750805
0.5464841
2.390542
2.518876
2.506088
2.382058
1.691635
2.394389
2.413112
1.694669
2.401525
0.541082
0.5719477
0.5394093
0.5742679
0.5034803
0.413683
2.304081
0.4105679
0.5079595
0.5028906
0.4074731
2.303885
0.4100204
0.5011784
0.5421958
0.5782023
0.5752788
0.5467437
0.4032441
0.4447183
1.803913
0.7523229
0.4431605
0.7468733
0.4053289
0.4020071
0.7425272
0.4399578
1.802813
0.4417309
0.4010355
0.7461296
0.4033422
0.4447138
1.80376
0.7518599
0.4431767
0.746498
0.4054109
0.4021333
0.7423655
0.4400558
1.802723
0.4417827
0.401201
0.7457945
0.8089365
2.241682
0.8608365
1.284581
0.8098595
0.8601957
1.2838
0.8128775
2.23932
0.8622337
1.285204
0.8113942
0.8643922
1.28824
2.407631
2.523458
2.527396
2.42474
1.706397
2.422628
2.416916
1.705201
2.420461
0.776818
1.449911
0.7764619
0.3742537
0.6697438
1.636961
0.6701548
1.631513
1.452028
0.7768813
0.7764746
0.7776176
1.460394
0.7775338
0.3737225
0.6698899
1.639039
0.67002
1.641051
1.459505
0.7771319
0.7775194
1.20755
0.02644341
0.02644764
1.211086
0.8611708
1.583347
11.5502
0.09491609
0.09491259
1.584511
0.8617858
1.704717
0.9176965
0.9188606
1.705628
0.8622527
0.0948887
11.55196
1.587649
0.09491353
0.8650118
1.586462
1.706049
0.9198017
1.70868
0.9199193
1.208072
0.02644936
0.02644848
1.209672
0.01006805
0.01820996
0.01006862
0.01820591
0.01012743
0.1030649
0.103316
0.01012683
0.01045396
0.3035187
0.3977618
0.03209061
0.01045781
0.3978576
0.03207482
0.01032994
0.02863124
0.1655894
0.02889605
0.02881025
0.02864404
0.01032739
0.01012747
0.103251
0.01012859
0.1032626
0.01033003
0.02883013
0.02865928
0.1656082
0.01033261
0.02881086
0.0286524
0.01006799
0.018315
0.01820726
0.01006818
0.01006893
0.0182104
0.01821396
0.01006862
0.01033429
0.0286754
0.1657606
0.02884778
0.02884558
0.02867443
0.01033443
0.01012927
0.1032245
0.1031196
0.01012933
0.01045995
0.3035294
0.3976891
0.03210078
0.01045783
0.3973999
0.03210877
0.01012921
0.1032364
0.0101286
0.1031056
0.01033412
0.02883328
0.1657613
0.02866666
0.028845
0.01033263
0.02867209
0.01006892
0.0182149
0.01821441
0.01006895
1.215163
0.02644363
1.212854
0.02644613
0.8697897
1.594154
11.56271
0.09689347
0.0949778
1.595227
0.8770402
1.71451
0.932895
0.9257097
1.730973
0.8690463
0.094891
1.590804
11.55752
0.8667045
0.09491561
1.593724
1.713393
0.9210932
1.710062
0.9249903
1.217166
0.02681395
0.02645234
1.229441
0.3407659
0.6554204
0.555147
0.3732635
0.3409806
0.5553433
0.3732029
0.340858
0.6555215
0.5553392
0.3733201
0.3410868
0.5554874
0.3732582
0.7292532
0.6088292
0.6096818
0.7288145
0.7725676
4.44891
0.8641266
0.8632027
0.7739236
0.7297664
0.6111201
0.6101525
0.7311655
0.4453103
0.7561585
0.3973247
2.788353
0.3988065
0.443081
2.795722
0.4770397
0.5819916
0.5785333
0.4800558
0.4761913
0.5747277
0.4738376
0.5776301
0.4718212
0.5720996
0.5728224
0.4714703
0.4414266
0.7477415
0.396336
2.787307
0.3955496
0.4426886
2.78163
0.4722123
0.5743005
0.5732469
0.473432
0.7777285
4.439454
0.8651318
0.8680618
0.7747625
0.7358952
0.6196417
0.6159705
0.7403229
0.7348929
0.6118972
0.7320144
0.6150718
2.410974
1.214012
3.905666
2.412144
3.905782
1.861852
1.861602
3.906284
1.214714
2.413739
2.412891
3.904824
6.443645
6.450474
1.861432
0.9797023
0.9806432
0.8230771
0.5382785
3.16383
0.8229774
3.164513
3.164768
0.8223463
0.5383631
0.8229554
3.164539
6.452698
6.454037
1.224231
4.127777
3.074542
3.067142
1.223637
4.12429
1.225149
3.063255
4.125009
3.062826
4.119605
1.228412
1.222777
4.133548
3.078744
4.131565
3.080561
1.223528
1.222647
4.132826
3.081091
4.133315
3.08148
1.222372
1.860741
1.863227
2.428409
1.220478
3.900122
2.419922
3.894214
3.901434
2.414028
1.219013
2.418689
3.89896
1.973458
1.957671
0.8090517
2.242649
0.8610469
1.284743
0.8099434
0.8604145
1.284002
0.812862
2.240791
0.8624265
1.285343
0.811429
0.8645602
1.288291
0.7294935
0.6090668
0.7290428
0.6099141
0.772814
4.450981
0.8643774
0.8634527
0.7741888
0.7300069
0.6114014
0.6103957
0.7314247
0.4456431
0.7580361
2.793893
0.3976592
0.399188
0.443361
2.802949
0.4774075
0.5823753
0.5788894
0.4804584
0.4765438
0.5750313
0.4741361
0.5779752
0.4720284
0.5722845
0.4716432
0.5730522
0.4416416
0.7485687
2.792266
0.3966228
0.3957905
0.442952
2.784788
0.472433
0.5745888
0.5734896
0.4737129
0.7779965
4.442716
0.8653765
0.8682873
0.7750314
0.73616
0.6199993
0.6163065
0.7405853
0.7351598
0.612192
0.7322779
0.6154002
2.411396
3.906373
1.214137
2.412613
3.906478
1.862468
1.862133
3.907056
1.214777
2.414171
2.413359
3.905563
6.441318
6.449275
1.861684
0.9798559
0.9807401
0.8231316
0.5384167
3.163902
0.8230725
3.163463
3.162266
0.8225033
0.5385124
0.8230673
3.163095
6.45317
6.453175
1.223249
3.07395
4.128193
3.066136
1.222941
4.124471
1.224073
3.061802
4.12491
3.061654
4.119692
1.227171
1.222467
3.078301
4.13402
4.132132
3.080461
1.222943
1.22244
4.133642
3.081383
1.222541
4.133901
3.081499
1.861371
1.863849
2.428413
1.220196
3.900572
2.420111
3.894785
3.902191
2.41443
1.218779
2.418941
3.899591
1.978482
1.959877
0.2809603
0.389146
0.2912693
0.4563089
0.3871
0.2903412
0.2819487
0.2803789
0.4559232
0.3858397
0.2892276
0.3866741
0.2897121
0.2801317
0.5198589
0.5253766
0.9777813
0.4963172
0.4999307
1.212484
0.4249867
0.3373859
0.4420854
0.4220614
0.4375542
1.221425
1.209723
0.4318166
0.4178652
0.335823
0.4209527
1.20158
0.4362025
0.5339818
0.5275635
0.3070556
0.2895352
0.9526053
0.3045564
0.2922337
0.4355113
0.7847463
0.811597
0.439687
0.2708115
14.06512
24.69399
0.3022856
0.3024662
24.67879
0.2686751
0.434357
0.8112834
0.8105475
0.4309234
0.3080712
0.9545627
0.2960181
0.293575
0.3109807
0.5186952
0.5157112
1.193066
0.41448
0.3314286
0.4272577
0.4150917
0.4280772
1.191902
0.9696457
0.4955014
0.4937007
1.194231
0.4309793
0.3321831
0.4171832
0.4156088
0.4287407
1.199586
0.5141512
0.5151899
0.302478
0.2887379
0.9410914
0.2873015
0.3040161
0.4278103
0.81096
0.8088083
0.4271404
0.2667579
14.09021
24.68427
0.3021609
0.302
24.65267
0.2680761
0.4282543
0.8110952
0.8084573
0.4302192
0.3022607
0.9405658
0.2863105
0.2869598
0.3017224
0.2846184
0.3903269
0.2927789
0.4620566
0.2832705
0.3941698
0.2946564
0.2861896
0.4635202
0.3996667
0.2982852