/*--------------------------------*- C++ -*----------------------------------*\
| =========                 |                                                 |
| \\      /  F ield         | OpenFOAM: The Open Source CFD Toolbox           |
|  \\    /   O peration     | Version:  v1706                                 |
|   \\  /    A nd           | Web:      www.OpenFOAM.com                      |
|    \\/     M anipulation  |                                                 |
\*---------------------------------------------------------------------------*/
FoamFile
{
    version     2.0;
    format      ascii;
    class       volScalarField;
    location    "440";
    object      k;
}
// * * * * * * * * * * * * * * * * * * * * * * * * * * * * * * * * * * * * * //

dimensions      [0 2 -2 0 0 0 0];


internalField   nonuniform List<scalar> 
32305
(
0.03659925
0.05706292
0.06502832
0.07036211
0.07437347
0.07754456
0.08013173
0.08228729
0.08411216
0.08568042
0.08705107
0.08827362
0.08939056
0.09043903
0.09145177
0.09245827
0.09348445
0.09455476
0.09569255
0.0969108
0.09819354
0.09956143
0.1010311
0.1026157
0.1043233
0.1061523
0.1080872
0.1100809
0.1120237
0.1136745
0.1145038
0.1132415
0.1061974
0.07535374
0.05739064
0.08361106
0.09618011
0.1020055
0.1048514
0.1066675
0.1082469
0.1097973
0.1113238
0.112773
0.1140919
0.1152496
0.1162414
0.1170841
0.1178088
0.118454
0.1190607
0.1196717
0.120333
0.121057
0.1219346
0.1230532
0.1244842
0.1263543
0.1288272
0.1320203
0.136079
0.1411091
0.1470601
0.153461
0.1588589
0.159682
0.1478086
0.1065488
0.06618336
0.1021126
0.1173036
0.1239508
0.1282009
0.1316142
0.1349453
0.1382509
0.1413565
0.1440253
0.1460603
0.1473453
0.1478488
0.1476079
0.1467045
0.145243
0.1433334
0.1410865
0.1386073
0.1359532
0.1333165
0.1308791
0.1288432
0.1274425
0.1269595
0.1277346
0.1301605
0.1346333
0.1414147
0.1503085
0.1599781
0.1665476
0.1605583
0.1249723
0.07154998
0.11323
0.1299236
0.1370885
0.1425461
0.1474929
0.1527919
0.1583865
0.1639178
0.1689164
0.172959
0.1757381
0.1770795
0.176928
0.1753204
0.172353
0.1681743
0.1629726
0.1568981
0.1501732
0.1431509
0.1361768
0.1296019
0.1238173
0.1192974
0.1166288
0.1165088
0.1196556
0.1266258
0.1374395
0.1508959
0.1629719
0.1646178
0.1391941
0.07492883
0.1190658
0.1366437
0.1440053
0.1499335
0.1556452
0.1622103
0.169567
0.1772856
0.184763
0.1914261
0.1968189
0.2006232
0.2026331
0.2027136
0.200761
0.1967211
0.1905649
0.1822548
0.1723434
0.1612899
0.1496478
0.138003
0.1270156
0.1174721
0.1103455
0.1067906
0.1079662
0.1146354
0.1267909
0.143187
0.1599342
0.1687956
0.1518032
0.07694601
0.1213019
0.1391425
0.1464637
0.1522163
0.1578636
0.1646984
0.1726772
0.1813582
0.190097
0.1982848
0.2054502
0.2112758
0.2155534
0.218104
0.2187093
0.2170573
0.2126426
0.2054328
0.1955579
0.1833492
0.1693147
0.1541312
0.1386623
0.1240271
0.1117174
0.1036399
0.1017798
0.1072347
0.1196307
0.1375486
0.1581558
0.1738195
0.1634294
0.07796362
0.1210799
0.1388327
0.1459595
0.1511787
0.1562006
0.1624763
0.1700156
0.1784087
0.1870402
0.1953455
0.202913
0.209505
0.215003
0.2193075
0.2222247
0.2232024
0.2217522
0.2173959
0.2097876
0.1990037
0.1854009
0.1695775
0.1523464
0.1348337
0.1187092
0.1064564
0.1011761
0.104746
0.1163334
0.1343901
0.1582978
0.1806719
0.1745648
0.07822939
0.1193228
0.1368042
0.1436956
0.1482232
0.1523365
0.157554
0.1639699
0.1712744
0.1789548
0.1865458
0.1937245
0.2003413
0.2063812
0.2118708
0.2166388
0.2202734
0.2220425
0.2208545
0.2160214
0.2073903
0.1952746
0.180283
0.1632006
0.1450569
0.1273749
0.1126205
0.1045463
0.1060011
0.1159331
0.1327261
0.159736
0.189228
0.1855539
0.07791721
0.1166195
0.1338112
0.1405219
0.144346
0.1474413
0.1513548
0.1562958
0.1620998
0.1684185
0.1749239
0.1813798
0.1876943
0.1939268
0.2002615
0.206552
0.2126811
0.2174476
0.2193664
0.2173417
0.2110204
0.2007172
0.187132
0.1710715
0.1535089
0.1357915
0.1200855
0.1101163
0.1094575
0.1170012
0.1314857
0.1619183
0.1992543
0.1967065
0.07715316
0.1133849
0.1303575
0.1369913
0.1401825
0.1422618
0.1447837
0.1481055
0.1522419
0.1570288
0.1622939
0.1678767
0.1736925
0.1798127
0.1864552
0.193908
0.2019498
0.2092159
0.2139561
0.2146559
0.2107349
0.2024849
0.1907894
0.1764349
0.1603159
0.1435798
0.1279524
0.1165579
0.1134804
0.1179317
0.1299477
0.164494
0.2105257
0.2083388
0.0760266
0.1098968
0.12677
0.1334527
0.1361231
0.1372586
0.1384101
0.1401053
0.142547
0.1457674
0.1497387
0.1543669
0.159527
0.165277
0.1716798
0.1795429
0.1886449
0.1976396
0.2045934
0.2076812
0.2062091
0.2004839
0.1912383
0.1792224
0.1652104
0.1501107
0.135213
0.1229695
0.1168166
0.117588
0.1282912
0.1676389
0.2229745
0.2208108
0.07462332
0.106323
0.1232433
0.1301236
0.1324118
0.1327368
0.1326263
0.1328008
0.1336368
0.1353476
0.1380357
0.1416503
0.146015
0.1511448
0.1568914
0.1642839
0.1733536
0.1832717
0.1919213
0.1971061
0.1979324
0.1946955
0.1881013
0.1788154
0.1674174
0.1544523
0.1406299
0.1275887
0.1184346
0.1161334
0.1278677
0.1721349
0.2367779
0.2345608
0.07321076
0.1028269
0.1198189
0.127031
0.1291262
0.1288574
0.1277075
0.1265902
0.1260263
0.1263637
0.1277798
0.1302428
0.1335992
0.1375068
0.1424703
0.149166
0.1579201
0.1682033
0.1777761
0.1841846
0.1864795
0.1851039
0.1808565
0.1743117
0.1657954
0.1553839
0.1430507
0.1295317
0.1179995
0.1145722
0.1297227
0.1799287
0.2536951
0.2501729
0.07174289
0.0995056
0.1166505
0.124316
0.1264346
0.1258095
0.1239057
0.1217956
0.1201149
0.1192875
0.1195105
0.1207762
0.1230088
0.1257827
0.1298228
0.135751
0.144156
0.1545186
0.1643296
0.1709099
0.1734122
0.1726516
0.1697019
0.1651729
0.1592255
0.1515
0.1411426
0.1281261
0.1166418
0.1158459
0.1363872
0.1931948
0.2762605
0.2684825
0.07018495
0.09642708
0.1138527
0.1221019
0.1244804
0.1237559
0.1214194
0.1186533
0.1161761
0.1144392
0.1136285
0.1137682
0.1146856
0.1164611
0.1196688
0.1250699
0.1335071
0.1441787
0.1540401
0.159824
0.1609352
0.1590888
0.1559483
0.1522391
0.1480626
0.1428928
0.135155
0.1249998
0.1188369
0.1251025
0.1521338
0.2156996
0.3077346
0.2906989
0.06850843
0.09363193
0.1115099
0.1205001
0.1233889
0.1228338
0.1203865
0.1172907
0.114322
0.1119268
0.1102613
0.1093773
0.1091495
0.1099151
0.1123985
0.1176437
0.1267507
0.1385767
0.1496791
0.1549288
0.1537355
0.1482066
0.1413024
0.1353464
0.1311046
0.1291946
0.1277209
0.1284925
0.1343448
0.149399
0.182815
0.2530841
0.3531081
0.3185796
0.06669014
0.0911364
0.1096846
0.1196192
0.1232782
0.1231568
0.1208804
0.1177283
0.1144993
0.1116204
0.1092316
0.1073814
0.1061058
0.1059026
0.1079035
0.113591
0.1244971
0.1409928
0.1563787
0.1594777
0.1539379
0.1423347
0.1320527
0.1260426
0.123554
0.1304622
0.1453942
0.1605244
0.1759019
0.1974329
0.2369259
0.3137759
0.419394
0.3547763
0.06471982
0.08894568
0.1084494
0.1195925
0.1243087
0.1248421
0.1229494
0.1199076
0.1165207
0.1132055
0.1101218
0.1073047
0.1049729
0.1039234
0.10578
0.1126402
0.1258076
0.1392755
0.1709491
0.1799768
0.180492
0.1491092
0.1349847
0.1390866
0.1622141
0.1843934
0.2058353
0.2264222
0.2479862
0.278302
0.3272299
0.4101618
0.5148057
0.4041437
0.06262031
0.08709628
0.1078974
0.1206353
0.1266919
0.1280847
0.1267186
0.1238203
0.1202258
0.1163878
0.1125103
0.1087308
0.10542
0.1036044
0.1052608
0.1128981
0.1295332
0.1526011
0.1868718
0.1749587
0.1798422
0.1515311
0.1632205
0.1887896
0.2257587
0.2680868
0.3106357
0.3505718
0.3871566
0.436038
0.5005789
0.5829949
0.6655427
0.4809625
0.06032478
0.08606499
0.108746
0.1235699
0.1311281
0.1331452
0.1320977
0.1291339
0.1251218
0.1206002
0.1158708
0.1111551
0.1068864
0.1041236
0.1047248
0.1110476
0.1240523
0.1464571
0.1284159
0.1943825
0.4500906
0.4794425
0.5551363
0.6571412
0.7612125
0.8466199
0.9058072
0.9480692
0.9881069
1.05239
1.079769
1.015703
0.6171589
0.05652278
0.08683962
0.1099564
0.127939
0.1381008
0.1411174
0.1395001
0.1355495
0.1304189
0.124761
0.1189359
0.1130507
0.1075538
0.1033367
0.1016267
0.1036238
0.1080146
0.1097081
0.1239706
0.2532583
0.6408395
1.285611
2.258437
3.058481
3.410946
3.514865
3.429918
3.123542
2.6543
2.132258
1.636069
1.206068
0.8421983
0.4770489
0.05081114
0.08396782
0.1062121
0.1280836
0.1432068
0.1458086
0.1406025
0.1347848
0.1282927
0.12158
0.1148898
0.1081219
0.1016387
0.09599216
0.09179435
0.08947302
0.08674428
0.07648015
0.1479719
0.4672902
0.7725888
1.13074
1.544753
1.872314
2.049421
2.093236
2.019585
1.857906
1.634432
1.380828
1.120427
0.8684392
0.6217727
0.3698209
0.04124424
0.07485552
0.09843629
0.1235035
0.1172373
0.1073173
0.1041053
0.0995923
0.09481001
0.09004992
0.08528152
0.08079324
0.07647208
0.07212858
0.06756916
0.06251748
0.05638822
0.05245273
0.177026
0.3389226
0.4603933
0.5589196
0.635429
0.682399
0.6996785
0.6937944
0.6747352
0.6463615
0.6067018
0.5597706
0.507417
0.4497299
0.375961
0.2349367
0.1761096
0.1793365
0.1856784
0.1709699
0.1761279
0.1793687
0.1857418
0.1823796
0.1558406
0.1922492
0.1526122
0.1824267
0.155846
0.1922903
0.1741075
0.1392342
0.1869547
0.1741827
0.1392345
0.1993504
0.1563402
0.1750641
0.1993931
0.1563803
0.1758593
0.1307129
0.12001
0.1464642
0.1759154
0.1307174
0.1200153
0.1341053
0.2097257
0.1284692
0.1341055
0.2098438
0.1066726
0.2241255
0.4133264
0.1067022
0.2242439
0.4134867
0.2212954
0.1197793
0.1596914
0.1239825
0.2213842
0.1197891
0.159701
0.05688996
0.04123037
0.0568331
0.0893823
0.07481066
0.08937634
0.1137343
0.09843844
0.1137437
0.1468545
0.1235201
0.1469043
0.09433655
0.1866434
0.1809986
0.1812033
0.1805072
0.1805514
0.09548209
0.1285621
0.1611478
0.1611969
0.194994
0.1012205
0.1012625
0.1974458
0.179216
0.6624746
0.9467699
0.1944122
0.1792383
0.6625238
0.9468529
0.4507257
0.3815619
0.4627409
0.2534178
0.4508443
0.3815957
0.4627799
0.05601244
0.04498213
0.05539719
0.05080616
0.05601433
0.04501373
0.05540557
0.08857344
0.08024052
0.08844468
0.08396942
0.08857541
0.08024298
0.08844709
0.1132861
0.1032874
0.1135351
0.1062162
0.1132901
0.1032913
0.1135397
0.1360848
0.129025
0.1442526
0.1280905
0.1360907
0.1290309
0.1442604
0.0375512
0.03751236
0.04344181
0.04124018
0.0448591
0.03907703
0.04484537
0.03899525
0.04348468
0.07731127
0.07481983
0.0788907
0.07158564
0.07885912
0.07155563
0.07735194
0.100162
0.09839974
0.1019231
0.09592139
0.1018824
0.09588427
0.1002191
0.1256932
0.1234635
0.1296134
0.1189757
0.1295706
0.1189284
0.1257583
0.1759623
0.1924674
0.1836133
0.175905
0.1828672
0.1756493
0.176218
0.1759863
0.1924745
0.1836717
0.1759284
0.1829037
0.1756676
0.1762395
0.09569877
0.1736344
0.1779672
0.06234775
0.1774604
0.06095795
0.09690924
0.1394171
0.1809107
0.1799632
0.0625256
0.06103294
0.09435426
0.1866879
0.1810798
0.1812517
0.1805495
0.1805836
0.09552637
0.09571509
0.1736769
0.1780463
0.06246751
0.1774994
0.06097217
0.0969604
0.1394184
0.1809552
0.1799927
0.06265404
0.06104628
0.1076068
0.0630848
0.1378823
0.06171916
0.138806
0.1080351
0.1076341
0.06320328
0.137878
0.06173285
0.1388281
0.1080821
0.1602466
0.1763273
0.1699045
0.1766935
0.1696852
0.1772378
0.1604475
0.1602687
0.1763262
0.1699193
0.1766728
0.1696983
0.1772221
0.1604643
0.1338924
0.1638085
0.1693197
0.1639859
0.1683025
0.2075531
0.1734624
0.1721502
0.1285581
0.1611044
0.1611834
0.1339065
0.1637718
0.1693563
0.1639711
0.1683411
0.2076438
0.1735132
0.1721934
0.2628463
0.1067785
0.1009453
0.3390736
0.1009932
0.3381215
0.2641595
0.2144064
0.2218301
0.3188653
0.3177461
0.2167866
0.1951084
0.1012246
0.1012626
0.1976259
0.2629822
0.106788
0.1009506
0.3391217
0.1009934
0.3382279
0.2643931
0.2145223
0.2219235
0.3190361
0.3178521
0.2169523
0.1601083
0.2203789
0.179013
0.1934136
0.1785201
0.1934155
0.1601141
0.1601197
0.2204478
0.1790734
0.1934302
0.1785596
0.1934299
0.160123
0.05143305
0.05685703
0.0530847
0.05704381
0.05305792
0.05701218
0.05147597
0.04340991
0.04123338
0.04485612
0.03883074
0.04484597
0.03889499
0.04339756
0.05140754
0.0568358
0.05304753
0.05699689
0.05304438
0.05699412
0.05140608
0.0834616
0.08934807
0.08536144
0.08873449
0.08532692
0.08870049
0.08350526
0.07731259
0.07480362
0.07887542
0.07156639
0.07885472
0.07154929
0.07734485
0.08346483
0.08934824
0.08534895
0.08873705
0.08532372
0.08870371
0.08350237
0.1059101
0.1136919
0.1085695
0.1116408
0.1085249
0.1115959
0.1059699
0.1001723
0.09840368
0.101928
0.09593325
0.1018873
0.09589163
0.1002285
0.10592
0.1136995
0.1085737
0.111653
0.1085294
0.111604
0.1059788
0.1257063
0.1234742
0.1296354
0.1189892
0.129583
0.1189371
0.1257723
0.1811861
0.186686
0.1966376
0.1800016
0.1811999
0.1867391
0.1966611
0.1307258
0.1745499
0.1767551
0.0654869
0.1765905
0.06444653
0.1311902
0.1943125
0.1433378
0.140144
0.1798781
0.1943825
0.1433349
0.140169
0.1285052
0.09171539
0.09146134
0.1060676
0.09184671
0.08566509
0.1097142
0.1060801
0.09184979
0.08566867
0.1271728
0.1238989
0.1626942
0.1126636
0.1624202
0.1126251
0.1271944
0.2522131
0.3491073
0.3167703
0.3488115
0.3166424
0.3672236
0.367475
0.1853913
0.1923519
0.1878469
0.1897827
0.187387
0.1895279
0.1858116
0.1854361
0.1923834
0.1879236
0.1898025
0.1874498
0.189549
0.1858554
0.1393615
0.1800939
0.1795087
0.1393685
0.1801469
0.1795554
0.1367635
0.1566256
0.1881672
0.1372739
0.1881981
0.1384123
0.1370344
0.1307571
0.1745857
0.1768174
0.06558486
0.1766267
0.06446411
0.1312457
0.1367902
0.1566611
0.1883209
0.1372676
0.1882573
0.1384302
0.137081
0.1948078
0.1761584
0.1919079
0.153457
0.153729
0.1917363
0.1948764
0.1483883
0.1198018
0.1705978
0.1282537
0.1709802
0.1281179
0.1485488
0.1948148
0.1761982
0.1919133
0.15348
0.1917438
0.1537388
0.1948789
0.1484062
0.1198152
0.170571
0.1282732
0.1709659
0.1281321
0.1485644
0.208359
0.09997388
0.1907174
0.09870926
0.189576
0.1285398
0.09165109
0.09141742
0.2084785
0.0999368
0.1908031
0.09869523
0.1896606
0.2004561
0.2226605
0.1068709
0.2583175
0.2576234
0.1055497
0.2022649
0.2609907
0.4128899
0.3679577
0.3458378
0.3677076
0.3453773
0.2625629
0.2005767
0.2227954
0.1068607
0.2584797
0.257781
0.1055553
0.2023848
0.2611166
0.4129979
0.3681052
0.3459913
0.3678034
0.3454787
0.2627335
0.1271818
0.1239116
0.1627392
0.1126722
0.1624495
0.1126321
0.1272014
0.1633092
0.1492419
0.1317068
0.09459346
0.149457
0.1319256
0.1632013
0.1635689
0.09468416
0.1501711
0.1326139
0.1496222
0.1320682
0.1639149
0.1285173
0.09138063
0.091433
0.09214602
0.1611118
0.0919376
0.09187452
0.1611222
0.09191343
0.2146513
0.1955641
0.2146873
0.1012508
0.1055268
0.105612
0.1056528
0.1012557
0.1056326
0.1959809
0.2150987
0.2147182
0.2522944
0.3492172
0.3168238
0.348887
0.3166777
0.3672679
0.3675217
0.1850907
0.1923975
0.1871393
0.1892118
0.1849462
0.1873
0.1893303
0.1851287
0.192424
0.1871639
0.1892314
0.1849687
0.187355
0.1893498
0.1286838
0.1422852
0.09596009
0.1425206
0.1284937
0.1274712
0.1304881
0.06136509
0.1298551
0.1281033
0.1273293
0.1294147
0.0612718
0.1296977
0.1271262
0.1288676
0.09604746
0.1432335
0.1426834
0.1294756
0.1226029
0.1228421
0.1393798
0.1793376
0.1794745
0.177273
0.1803252
0.1353409
0.1347826
0.1768094
0.1344365
0.17656
0.1801982
0.134651
0.1767192
0.1236101
0.1229412
0.06145605
0.06135874
0.1633642
0.1492751
0.1317323
0.09462845
0.1632359
0.1495136
0.1319643
0.1636317
0.09472121
0.1502447
0.132661
0.1496846
0.1321101
0.1639824
0.1287424
0.1423167
0.09599895
0.1285203
0.1425795
0.1275394
0.1305796
0.06144147
0.1299308
0.1281857
0.1273908
0.1294471
0.06134003
0.1271509
0.1297647
0.1289335
0.0960889
0.1433123
0.142749
0.1295566
0.1226214
0.1228719
0.1393861
0.1793532
0.1795181
0.1772918
0.1803687
0.1353777
0.1768324
0.1348165
0.1344585
0.1765787
0.1802401
0.1767425
0.1346828
0.1236441
0.1229724
0.06153653
0.06143052
0.03909726
0.08753572
0.0851385
0.1077105
0.08773667
0.08521585
0.03883975
0.06213953
0.07272329
0.07222857
0.03816159
0.1387095
0.07487654
0.07480472
0.03900372
0.07184583
0.06203186
0.07209364
0.03807818
0.0747552
0.1387643
0.07479413
0.03780886
0.0391862
0.1078744
0.08828073
0.08544154
0.08788683
0.08527368
0.03993416
0.03912079
0.08755775
0.0851543
0.1077476
0.03884909
0.0877772
0.08524096
0.06221485
0.07278687
0.07227743
0.03817841
0.1387045
0.07489667
0.07482446
0.03903064
0.07186485
0.06209793
0.07213548
0.03809377
0.07476777
0.1387602
0.03781647
0.07481292
0.03921193
0.1079176
0.08833627
0.08547194
0.08793321
0.08530084
0.0399755
0.1947978
0.1761895
0.1915574
0.1538261
0.1537402
0.1916221
0.1948114
0.1945937
0.1620699
0.1770454
0.1830587
0.1622116
0.1830921
0.1945764
0.1946532
0.1831644
0.1623129
0.1771087
0.1622389
0.1831379
0.1947004
0.1948063
0.1762253
0.1915685
0.1538126
0.1916307
0.1948186
0.1537469
0.1946155
0.1620851
0.1770245
0.1830765
0.1831099
0.1622172
0.1945968
0.1946712
0.1831753
0.1623025
0.177088
0.1947103
0.1831522
0.1622398
0.1425025
0.1423584
0.1501337
0.1560022
0.1639222
0.1560813
0.1506249
0.1554355
0.1642021
0.1686857
0.164066
0.1558895
0.1500877
0.1561277
0.1639376
0.1560996
0.1499464
0.1553273
0.1638969
0.1685673
0.1639724
0.1551782
0.1425768
0.1432124
0.2081107
0.09822937
0.1888632
0.09863558
0.1893462
0.1858698
0.1726575
0.1848335
0.1841654
0.1724931
0.1846192
0.1285479
0.09136906
0.09139346
0.09207247
0.1610766
0.09188715
0.09186314
0.1610885
0.09186793
0.1425121
0.1423686
0.1501463
0.1559674
0.1638897
0.1560547
0.1506483
0.155438
0.1642377
0.1687255
0.1641009
0.1558917
0.150099
0.1561227
0.1639073
0.1560777
0.1499544
0.1553321
0.163922
0.1686083
0.1551892
0.1640022
0.1425875
0.143236
0.2082279
0.09826589
0.1889301
0.09862679
0.1894289
0.1859475
0.1727097
0.1849099
0.1842259
0.1725451
0.1846941
0.2043635
0.09572874
0.2504208
0.2149402
0.0959862
0.2507484
0.2040813
0.2001657
0.2223966
0.1050523
0.2567955
0.2571455
0.1054709
0.1997469
0.1655736
0.1672163
0.1653166
0.164951
0.2047464
0.2153365
0.09723982
0.252006
0.09610932
0.2513211
0.2063256
0.2146824
0.1957222
0.2147229
0.1012526
0.1055218
0.1056107
0.1056528
0.1012569
0.1056323
0.1961465
0.2150947
0.21475
0.2044986
0.09578291
0.2505402
0.215095
0.2041663
0.09605274
0.2508903
0.2002879
0.2225277
0.1050878
0.2569034
0.2572808
0.10548
0.1998378
0.1656804
0.1673265
0.1654224
0.1650224
0.2048835
0.2154952
0.097328
0.2521657
0.09617869
0.2514746
0.206465
0.128428
0.1054448
0.105532
0.1946743
0.1922669
0.1917308
0.1975506
0.1916618
0.1974499
0.1948287
0.194712
0.1923061
0.1917849
0.1975718
0.1917136
0.1974709
0.194867
0.1392777
0.1697259
0.1695347
0.1392837
0.1696938
0.16951
0.201952
0.1759837
0.1996581
0.1674946
0.1677003
0.199608
0.2019589
0.2019827
0.1760356
0.1996774
0.1675788
0.1996273
0.1677786
0.2019911
0.161219
0.1340043
0.1503854
0.1489486
0.1488796
0.1503545
0.1615191
0.1284784
0.1054671
0.1055536
0.16123
0.1340103
0.1503662
0.1489774
0.1503407
0.1489075
0.1615327
0.1190886
0.1063599
0.1034237
0.09439909
0.1064058
0.1034842
0.1190719
0.1197772
0.09509336
0.1072975
0.1044453
0.107106
0.1041489
0.1199931
0.1285449
0.1056215
0.105611
0.1376709
0.161086
0.08901038
0.1378042
0.08884099
0.08869421
0.1379961
0.1611705
0.1379682
0.08869654
0.1003183
0.1019325
0.101236
0.103388
0.1019541
0.1034067
0.1003189
0.1003239
0.1034853
0.1019496
0.1012612
0.1019493
0.1034817
0.1003244
0.1942664
0.1924576
0.1915664
0.1971844
0.1942612
0.1915718
0.1972016
0.1942911
0.1924714
0.1915785
0.1971969
0.1942756
0.1915927
0.197217
0.08818598
0.1013273
0.09576188
0.1013862
0.08814532
0.07806314
0.07630658
0.06191697
0.07063008
0.07610863
0.0701124
0.07843375
0.07739324
0.06912098
0.07535755
0.06102185
0.07539714
0.0691822
0.07735502
0.08880118
0.09647414
0.1023107
0.1020374
0.08911387
0.0958652
0.09592599
0.1394085
0.1694625
0.1694775
0.09706632
0.09664836
0.06204378
0.06109867
0.1191218
0.1063818
0.1034414
0.09442393
0.1190925
0.1064367
0.10351
0.1198342
0.09513582
0.107359
0.1044838
0.1071645
0.1041869
0.1200525
0.0882161
0.1013449
0.09578836
0.08816265
0.1014179
0.07815263
0.07640226
0.0620235
0.07077779
0.07619858
0.0702418
0.0785327
0.07742733
0.06913873
0.07537642
0.06105826
0.07542923
0.07737124
0.06922576
0.08886672
0.09652265
0.1023748
0.102097
0.08918633
0.09588083
0.09594322
0.1394126
0.1694673
0.169476
0.09708527
0.09666926
0.06215715
0.06113669
0.06268568
0.06232955
0.06205131
0.04400321
0.1385885
0.1384729
0.06387943
0.06395727
0.1399472
0.04415436
0.06121106
0.06178355
0.06127457
0.04380808
0.06391335
0.1398998
0.1387839
0.06392681
0.1398622
0.04379971
0.06279109
0.06242398
0.06213564
0.04401131
0.1385858
0.1384647
0.06390398
0.06398045
0.1399468
0.04415981
0.06122421
0.06181901
0.06130494
0.0438165
0.06392127
0.1399115
0.1387856
0.06393791
0.04380577
0.139861
0.2020293
0.1762894
0.1995306
0.1683013
0.1682347
0.1995348
0.2020435
0.2020413
0.1763047
0.1995378
0.1682951
0.1995452
0.2020483
0.1682544
0.1611534
0.1339417
0.1503198
0.1488196
0.1488457
0.1503411
0.16105
0.1564464
0.1663345
0.1638556
0.100303
0.1663929
0.1003514
0.156411
0.1564852
0.1005066
0.1665592
0.1639707
0.1665438
0.1004929
0.1564739
0.1285555
0.1056117
0.1056077
0.1376266
0.1610471
0.08900992
0.1377617
0.0888402
0.0886883
0.1379814
0.1611465
0.1379403
0.08869052
0.1611645
0.1339515
0.1503222
0.1488367
0.1503337
0.1610593
0.1488681
0.1564259
0.1662937
0.1638195
0.1003047
0.1663533
0.1003517
0.1563903
0.1564697
0.1004996
0.1665459
0.1639494
0.1665238
0.1564667
0.1004838
0.2390053
0.2266122
0.380825
0.2630999
0.2267836
0.3808385
0.2388196
0.1092323
0.102818
0.1009782
0.105709
0.1057583
0.1028424
0.1091798
0.1092798
0.1058008
0.102879
0.1009841
0.1057879
0.1028667
0.109303
0.2394411
0.2635386
0.2274617
0.3798832
0.2270795
0.3805663
0.2388341
0.1003182
0.1019343
0.1012395
0.1033962
0.1019559
0.1034143
0.100319
0.1003235
0.1034856
0.10195
0.1012615
0.1003244
0.1019499
0.1034831
0.2390906
0.2266823
0.3809796
0.2632754
0.2388945
0.22686
0.3810628
0.1092429
0.1028355
0.1009805
0.105707
0.1028537
0.1057594
0.1091893
0.1092873
0.1058013
0.1028805
0.1009856
0.102873
0.1093051
0.1057893
0.2394996
0.2637445
0.2274977
0.3801991
0.2271474
0.3808417
0.2388182
0.1787357
0.1917391
0.1787849
0.1660207
0.1658902
0.1914416
0.1789329
0.1786635
0.1657669
0.1911038
0.1786348
0.1658183
0.1912426
0.1786493
0.178781
0.1918062
0.1788441
0.1660608
0.1915063
0.1659293
0.1789747
0.1787027
0.1657918
0.191145
0.1786849
0.1912961
0.1786725
0.1658504
0.1233391
0.06485585
0.08902947
0.123006
0.08852729
0.1310728
0.1313633
0.08813654
0.122535
0.06469603
0.1227148
0.08838452
0.1308432
0.1307167
0.128443
0.105616
0.1055559
0.1010271
0.09158118
0.1011043
0.1011581
0.0915296
0.1011192
0.1945554
0.1923075
0.1915848
0.1972896
0.1916166
0.1973631
0.194461
0.1945919
0.1923432
0.1916279
0.1973101
0.1916646
0.1973839
0.1944955
0.1274758
0.1277506
0.1393024
0.1694738
0.1695241
0.1742305
0.1797845
0.1294578
0.1740201
0.1291008
0.1287562
0.1739001
0.1797073
0.1739862
0.1290002
0.1283255
0.1278757
0.1274398
0.1276968
0.1393086
0.1694621
0.1695027
0.17422
0.1798376
0.1293778
0.1740139
0.1290355
0.1287161
0.173902
0.1797598
0.1739828
0.1289412
0.1282527
0.1278158
0.148012
0.1382071
0.1007105
0.1007747
0.1484192
0.127837
0.1277418
0.1009038
0.1486122
0.1383263
0.1008637
0.1485444
0.1279309
0.1279946
0.1234265
0.06492467
0.08910129
0.1230824
0.08858216
0.1311444
0.1314427
0.08815757
0.1225693
0.0647518
0.1227722
0.08843109
0.130899
0.1307456
0.1480044
0.1382076
0.1007554
0.1008105
0.1484114
0.1279093
0.1278323
0.1009209
0.1486183
0.1383272
0.1008898
0.148552
0.1279796
0.1280175
0.2019566
0.1760222
0.1680087
0.1995481
0.1677737
0.1995736
0.2019722
0.2058237
0.1641345
0.1536012
0.2046534
0.1643668
0.2046873
0.2057991
0.2058564
0.2047723
0.1646618
0.1536353
0.1644362
0.2058957
0.2047218
0.1532577
0.1708365
0.1688566
0.1688606
0.1532844
0.148037
0.1481066
0.1688944
0.1533353
0.1708827
0.1688841
0.1533166
0.1480218
0.1480262
0.2019858
0.1760717
0.1995664
0.1680663
0.1995925
0.1678486
0.201999
0.2058475
0.164203
0.1536209
0.2046875
0.1644293
0.2047198
0.2058233
0.2058787
0.204797
0.1647067
0.1536527
0.1644955
0.2059155
0.204751
0.1532379
0.1708119
0.168873
0.1688772
0.1532689
0.1480501
0.1481174
0.1689054
0.1533356
0.1708596
0.1688988
0.1533084
0.1480356
0.1480364
0.1505093
0.1337244
0.1499797
0.1343511
0.1567139
0.1693763
0.09931143
0.1683183
0.1577722
0.1564774
0.1673174
0.09915992
0.1680659
0.1559505
0.150818
0.1353908
0.1346419
0.1517895
0.1284906
0.1056288
0.1055768
0.1010667
0.09152442
0.101141
0.1011815
0.0914769
0.1011544
0.1505742
0.1337802
0.1500422
0.1344127
0.156797
0.1694656
0.09928148
0.1684067
0.1578582
0.1565591
0.1674032
0.09913358
0.1681537
0.1560282
0.150884
0.1354574
0.1347052
0.1518579
0.1903194
0.1744095
0.1061778
0.1432313
0.173857
0.1422149
0.1910329
0.1898175
0.141277
0.172846
0.1060363
0.1733579
0.1894014
0.1419678
0.1904111
0.1744741
0.1061724
0.1432912
0.1739233
0.1422753
0.1911236
0.1899109
0.1413397
0.1729179
0.1060334
0.1734267
0.1894972
0.1420286
0.1191736
0.09445123
0.1065798
0.1036688
0.1192964
0.1064895
0.1035437
0.1196031
0.09498391
0.1067385
0.1037731
0.1194378
0.1069185
0.1040254
0.1285358
0.1056127
0.105604
0.101148
0.09138702
0.1011376
0.1011482
0.09138886
0.1011322
0.1296113
0.09202794
0.1297567
0.1610897
0.1379155
0.08873588
0.1378296
0.08879106
0.09198362
0.1299025
0.1297986
0.1299979
0.09187923
0.1299769
0.1611511
0.1379219
0.08871556
0.1379506
0.08869531
0.09187911
0.1299213
0.1299608
0.08342169
0.1029763
0.1029817
0.08362824
0.1173912
0.1848828
0.214641
0.1099014
0.1098972
0.1850025
0.11743
0.08432876
0.1244363
0.1245557
0.08435984
0.1174968
0.109877
0.2146651
0.1853938
0.1098954
0.1177692
0.1852057
0.08441004
0.1248086
0.08461312
0.1246716
0.0834314
0.1029831
0.1029819
0.08346096
0.1000551
0.1017938
0.1000557
0.1017721
0.1001016
0.1022879
0.1023517
0.1001025
0.1003185
0.1012448
0.1019501
0.1034485
0.1003219
0.1019544
0.1034286
0.1002401
0.1018147
0.1055457
0.1040796
0.104245
0.1018208
0.1002414
0.1001017
0.1023413
0.1001028
0.102352
0.1002403
0.104333
0.1018384
0.1055798
0.1002426
0.1042648
0.1018296
0.1000551
0.1017542
0.1017696
0.100056
0.1000561
0.1017944
0.1017991
0.1000558
0.1002441
0.1018575
0.1056501
0.1043544
0.1043517
0.1018556
0.1002446
0.1001035
0.10234
0.1023414
0.1001036
0.1003238
0.101259
0.1019504
0.1034638
0.1003221
0.1019496
0.1034746
0.1001034
0.1023421
0.1001029
0.102342
0.1002441
0.104337
0.1056441
0.101846
0.1043507
0.1002428
0.1018518
0.1000561
0.1018002
0.1017993
0.1000562
0.08400822
0.1029756
0.08375814
0.102957
0.1183733
0.1871475
0.2146936
0.1099625
0.109799
0.1866652
0.1191831
0.08513297
0.1267478
0.1257609
0.08586409
0.1182357
0.109872
0.1857762
0.2146795
0.1179408
0.1098077
0.1862211
0.0850175
0.1250165
0.0847347
0.1255793
0.0842083
0.1030244
0.1029559
0.08493008
0.194318
0.1924363
0.1915781
0.19725
0.1943845
0.1915789
0.1972272
0.1943461
0.1924567
0.1916147
0.1972695
0.1944158
0.1916074
0.1972446
0.08481161
0.07680526
0.07686176
0.08477485
0.08823525
0.09581205
0.1015741
0.1014417
0.08837334
0.08485538
0.07702533
0.07690258
0.08500542
0.07795059
0.06176563
0.07572924
0.06952788
0.07592101
0.07768186
0.06995142
0.07584535
0.07583244
0.0755625
0.0761852
0.07573729
0.07519643
0.0754663
0.07547138
0.07520268
0.07492386
0.07498102
0.07516102
0.07744519
0.0610752
0.07558829
0.06943835
0.07547749
0.07760983
0.06923679
0.07524772
0.07513947
0.07502046
0.07539837
0.08871098
0.09636053
0.1016782
0.1019224
0.08846397
0.08542033
0.07773444
0.07746776
0.08573156
0.08533096
0.07711379
0.08508967
0.07737151
0.09551714
0.1226645
0.1105973
0.09557692
0.1106487
0.09612898
0.09597612
0.1108459
0.1227196
0.0957799
0.09562871
0.1106896
0.1274235
0.1273214
0.1394013
0.1694799
0.1694814
0.1738465
0.1793755
0.1285218
0.1738681
0.1285796
0.1287059
0.1738984
0.1794084
0.173883
0.1286153
0.1272361
0.1272967
0.1424912
0.1147528
0.1341746
0.134392
0.1422695
0.1150577
0.1426054
0.1348633
0.1156402
0.1345173
0.1152033
0.1429069
0.1420733
0.1146921
0.1341185
0.1145258
0.1340313
0.14221
0.1420402
0.1144447
0.1339455
0.1145008
0.1339996
0.1420085
0.09622164
0.09653422
0.09671007
0.1232941
0.1117642
0.09629398
0.1113345
0.110913
0.09587442
0.1231879
0.09618189
0.1112086
0.06188009
0.06115211
0.1192126
0.09447884
0.1066234
0.1037013
0.1193398
0.1065272
0.1035716
0.1196567
0.09502543
0.1067879
0.1038076
0.1194867
0.1069729
0.1040625
0.08484185
0.07682151
0.08478886
0.0768907
0.08826982
0.09584192
0.1016192
0.1014777
0.08842059
0.0848903
0.07707373
0.07693642
0.08505342
0.07803508
0.06186525
0.06962024
0.07579909
0.07600194
0.07774885
0.07007216
0.07593139
0.07591161
0.0756349
0.07628031
0.07581832
0.07525063
0.0755298
0.07553984
0.07523665
0.07493755
0.07517305
0.07501
0.0774856
0.06111956
0.06952101
0.07564604
0.07552228
0.07767022
0.06929009
0.07528841
0.07518872
0.0750545
0.07545542
0.08877338
0.09640768
0.1017272
0.1019792
0.08851533
0.08548788
0.07781196
0.07753836
0.08580629
0.08539507
0.07716708
0.08514204
0.07743827
0.09553416
0.1106112
0.122689
0.0955939
0.1106628
0.09615015
0.09599456
0.1108605
0.1227457
0.09580058
0.09564685
0.1107041
0.1273931
0.1273065
0.1394062
0.1694696
0.1694773
0.173854
0.1794062
0.1285297
0.1738741
0.1285677
0.1286716
0.1739009
0.1794423
0.1738878
0.128598
0.1272435
0.1272869
0.1425072
0.1341576
0.1147606
0.1343629
0.142287
0.1150611
0.1426206
0.1348212
0.1156384
0.1344834
0.1152049
0.1429206
0.142092
0.134106
0.1147009
0.1145366
0.1340288
0.1422275
0.1420587
0.1144603
0.1339546
0.1420205
0.114512
0.1340009
0.0962433
0.09655566
0.09672851
0.1233278
0.1117728
0.09631444
0.1113454
0.1109274
0.09589559
0.123221
0.09620283
0.1112207
0.06198586
0.0611985
0.06745768
0.0557739
0.05443488
0.0389309
0.05563939
0.05437097
0.06754853
0.0674057
0.03890128
0.05553785
0.05429404
0.05559878
0.05432499
0.06738679
0.04621285
0.04653636
0.06251516
0.06160441
0.06191992
0.05135202
0.06666261
0.07257384
0.05476769
0.06639813
0.05451208
0.05177511
0.05120449
0.05412502
0.06598539
0.07241329
0.06627871
0.05080326
0.05440771
0.04694635
0.04665823
0.0353914
0.04942899
0.0385074
0.0352292
0.04957601
0.0316858
0.101634
0.1030466
0.0318723
0.04395669
0.1386102
0.1399192
0.06396119
0.06397451
0.1399574
0.04389013
0.0316192
0.1030227
0.1030321
0.03144186
0.03546322
0.03864669
0.04974706
0.0496406
0.03562196
0.04613612
0.04596773
0.05043256
0.06560433
0.0718991
0.05377029
0.06566787
0.0538302
0.05037246
0.06184414
0.06150704
0.06133292
0.05048868
0.05404483
0.07198625
0.06589459
0.06572557
0.05388079
0.05070681
0.04586922
0.04593136
0.03509252
0.04938202
0.03790313
0.04929921
0.03518652
0.03127733
0.1030221
0.1029755
0.03124952
0.043826
0.1388026
0.139929
0.06395461
0.06394367
0.1398749