/*--------------------------------*- C++ -*----------------------------------*\
| =========                 |                                                 |
| \\      /  F ield         | OpenFOAM: The Open Source CFD Toolbox           |
|  \\    /   O peration     | Version:  v1706                                 |
|   \\  /    A nd           | Web:      www.OpenFOAM.com                      |
|    \\/     M anipulation  |                                                 |
\*---------------------------------------------------------------------------*/
FoamFile
{
    version     2.0;
    format      ascii;
    class       volScalarField;
    location    "440";
    object      nut;
}
// * * * * * * * * * * * * * * * * * * * * * * * * * * * * * * * * * * * * * //

dimensions      [0 2 -1 0 0 0 0];


internalField   nonuniform List<scalar> 
32305
(
0.002355916
0.008275699
0.009772522
0.01062107
0.01110875
0.0114227
0.01164939
0.01182559
0.01196854
0.01208794
0.01219015
0.01227982
0.01236066
0.01243566
0.01250737
0.01257798
0.0126493
0.01272305
0.01280074
0.01288269
0.01296812
0.01305813
0.01315344
0.01325437
0.01336058
0.0134706
0.01358103
0.01368413
0.01376163
0.0137676
0.01358337
0.01292847
0.01131598
0.003383941
0.01044477
0.01705559
0.02159229
0.02506511
0.02772599
0.02982424
0.0315362
0.03295748
0.0341423
0.03511944
0.03590459
0.03650976
0.03694977
0.03724169
0.03740459
0.03745653
0.03741183
0.0372836
0.03708078
0.03679908
0.03650005
0.03619284
0.03587973
0.03556909
0.0352743
0.03499535
0.03472621
0.03442774
0.0339854
0.03315306
0.03152973
0.02859367
0.02345932
0.01425745
0.01094311
0.02391149
0.0306745
0.03665522
0.04181171
0.04610695
0.04950023
0.05202909
0.05377951
0.05484815
0.05533164
0.05532957
0.05494212
0.05426393
0.05337899
0.05235637
0.05124956
0.05009902
0.04893065
0.04774491
0.04656759
0.0453932
0.04420568
0.04298988
0.04174586
0.04050751
0.03935344
0.0383764
0.03757308
0.03667297
0.0350768
0.03198527
0.02620981
0.01506587
0.01134645
0.02947046
0.03813698
0.04608588
0.05315862
0.05904613
0.06360156
0.0669113
0.06912732
0.07037449
0.07076013
0.07040038
0.06942193
0.06795292
0.06611454
0.06401528
0.06176255
0.05945424
0.05716184
0.05488685
0.05269525
0.05059705
0.04856594
0.04654462
0.04446741
0.04231861
0.04023127
0.03853707
0.03756902
0.03713593
0.03631312
0.03383201
0.02814833
0.01585704
0.01159667
0.03390112
0.0444591
0.0538685
0.06230211
0.06935727
0.07494416
0.07931903
0.08268952
0.08509817
0.08653635
0.08703789
0.08668485
0.08557542
0.08380214
0.08145029
0.07861918
0.07543402
0.07189396
0.0682127
0.06452631
0.06090663
0.05736859
0.05384471
0.05019017
0.04627568
0.04225262
0.03886161
0.0370515
0.03669243
0.03650164
0.03480881
0.0295587
0.01654038
0.01173454
0.03727642
0.04962623
0.06010385
0.06931465
0.07698394
0.08332286
0.08883206
0.09376671
0.09800555
0.1013284
0.1036198
0.1048884
0.1051956
0.104596
0.1031241
0.1008161
0.09762842
0.09365844
0.08920366
0.08440942
0.07938143
0.07416546
0.06868921
0.06270789
0.05588378
0.04833446
0.0415884
0.03777506
0.03652622
0.03625075
0.0352419
0.03075175
0.01713872
0.01179759
0.03959798
0.05357713
0.06472872
0.07422657
0.0819473
0.08860665
0.094977
0.1013525
0.1074743
0.1128962
0.1172881
0.1205286
0.1226222
0.1235965
0.1234466
0.1221675
0.1196284
0.1162119
0.1121089
0.1074002
0.102128
0.09626197
0.08962014
0.08173877
0.07186126
0.05979915
0.04820374
0.04109078
0.03760393
0.03603956
0.03540201
0.0319462
0.01769355
0.01180755
0.04097737
0.0563456
0.06786401
0.07729139
0.08474362
0.09137706
0.09818247
0.1055094
0.1130666
0.120278
0.1265733
0.1316031
0.1352419
0.1374758
0.1382881
0.1375386
0.135707
0.1331343
0.1299782
0.1262402
0.1218273
0.1165603
0.1100805
0.1016523
0.09002757
0.07444368
0.05827
0.04697121
0.0398353
0.035796
0.03538306
0.03322982
0.01822864
0.01177727
0.0415526
0.05807709
0.06980893
0.07900185
0.08606498
0.09245332
0.09928094
0.1069701
0.1152993
0.1237125
0.1314393
0.1377965
0.1423853
0.1450738
0.1457705
0.1448561
0.1430743
0.1409807
0.1387804
0.1363275
0.1332995
0.1293084
0.1238054
0.1158692
0.104073
0.0875419
0.06944105
0.05436974
0.04226155
0.03510486
0.03510102
0.03456066
0.01876051
0.0117153
0.04151702
0.05900229
0.07091582
0.0798477
0.08649368
0.09245147
0.09893969
0.1064611
0.114914
0.1239021
0.1325493
0.139763
0.1447086
0.1469707
0.1465091
0.1443327
0.1416611
0.1394533
0.1379704
0.1368014
0.13529
0.132815
0.1286673
0.1218852
0.1112226
0.09606634
0.07840306
0.06083127
0.04352508
0.03373124
0.03446149
0.035824
0.01930366
0.01162738
0.04105895
0.05936285
0.07149164
0.08020288
0.08643578
0.09180036
0.0976208
0.1045417
0.1125795
0.1215818
0.130673
0.1383194
0.1431398
0.1441662
0.1417544
0.137412
0.1331178
0.1303385
0.1293147
0.1292761
0.1292389
0.1283659
0.1258784
0.120875
0.1122852
0.09936706
0.08284415
0.06360036
0.04284356
0.0317838
0.0335003
0.03690565
0.01987312
0.01151937
0.0403016
0.05934368
0.07175636
0.0803233
0.08619216
0.09087293
0.09578978
0.10176
0.1089884
0.1175058
0.1264701
0.1339467
0.1379902
0.1372565
0.1327274
0.1261504
0.1199612
0.116303
0.1154706
0.1163304
0.1175949
0.1182973
0.1176681
0.1149021
0.1089387
0.09843115
0.08244589
0.06125715
0.03953498
0.02954588
0.03238222
0.03772522
0.02048582
0.01141157
0.03924995
0.05898587
0.07173919
0.08026035
0.08589721
0.08997606
0.09394409
0.09875912
0.1048533
0.1123389
0.1203932
0.1270145
0.1297122
0.1276878
0.1214353
0.1126953
0.1044916
0.09986225
0.09908332
0.1005552
0.1027317
0.1046406
0.1056165
0.1049587
0.101513
0.09317599
0.0773446
0.0547301
0.03449924
0.02708718
0.0314611
0.03856309
0.0211628
0.01130076
0.03803671
0.05836855
0.07149441
0.08010544
0.08568509
0.08937253
0.0925351
0.09621489
0.1010189
0.1070757
0.1136282
0.1188641
0.1202844
0.117226
0.1095533
0.09867538
0.0884124
0.08294526
0.08226043
0.08405888
0.08658275
0.08900561
0.09087439
0.09162338
0.08997588
0.08303527
0.06695471
0.04464959
0.02886556
0.02501622
0.03111166
0.03986728
0.02193302
0.01118507
0.03675683
0.05750204
0.07097275
0.07979211
0.08550903
0.08911417
0.09178914
0.09456115
0.09810716
0.1025589
0.1073137
0.1107251
0.111104
0.107197
0.09809598
0.08484507
0.07241458
0.06640036
0.06610263
0.06802948
0.07022751
0.07229073
0.07413713
0.07536847
0.07453265
0.06773263
0.0515773
0.0338943
0.02469525
0.02421528
0.03183118
0.04193654
0.0228361
0.01106494
0.03547061
0.056349
0.07004539
0.07910766
0.08510894
0.08893569
0.09150897
0.09371341
0.09619272
0.09908538
0.1019961
0.1036169
0.1028419
0.09797577
0.0872131
0.07133699
0.05685709
0.05054237
0.0510106
0.05295557
0.05386518
0.0539157
0.05413349
0.05450829
0.05337024
0.04592838
0.03462639
0.02628958
0.02317894
0.02527564
0.03407366
0.04500222
0.02392608
0.01094808
0.03422072
0.05487327
0.06856808
0.07776968
0.08407542
0.08829066
0.09105863
0.09302529
0.09469337
0.09620267
0.09729505
0.09704749
0.09489794
0.08894372
0.07643052
0.05851364
0.04281178
0.03642187
0.03759452
0.0382155
0.0368889
0.03557472
0.03501575
0.03372067
0.03003658
0.02638074
0.02438928
0.0234635
0.02420665
0.02837697
0.0380211
0.0489805
0.02527718
0.01086478
0.03307017
0.05309789
0.06642381
0.07551752
0.08198178
0.08653163
0.08959154
0.09150551
0.09254826
0.09280533
0.09194245
0.08975818
0.08626295
0.07951432
0.06589145
0.04767772
0.03778752
0.02595168
0.02595597
0.02808244
0.02165898
0.01773036
0.01627797
0.01612866
0.01725416
0.01905228
0.02116881
0.02349757
0.02707183
0.03341792
0.04363738
0.05371061
0.02701762
0.01088854
0.03214673
0.0511386
0.06361499
0.07217629
0.07844218
0.08308512
0.08631517
0.08816059
0.08862317
0.08769567
0.08517817
0.08142175
0.07695301
0.06986977
0.05629312
0.0391368
0.02800724
0.01434283
0.011012
0.01433072
0.004247168
0.00599244
0.008497867
0.01180901
0.01569179
0.01984059
0.02405124
0.02833788
0.03476108
0.04372133
0.05467767
0.06201542
0.02950477
0.01110098
0.03175849
0.04911861
0.06000187
0.06739722
0.07303101
0.07734858
0.080351
0.08182482
0.08160615
0.07974574
0.07628341
0.0717215
0.06677496
0.0598209
0.04794942
0.0340085
0.02378335
0.0005866591
0.002334145
0.01511244
0.01887594
0.02434611
0.0313256
0.03901094
0.04653816
0.0536897
0.06149796
0.07102489
0.08174788
0.0913262
0.09281907
0.03366279
0.004854477
0.03222393
0.04754531
0.05555775
0.0607327
0.06428978
0.0676605
0.0699088
0.07061408
0.0696581
0.06724606
0.06337214
0.05865423
0.05371151
0.04767509
0.03916301
0.0295623
0.02332743
0.01558668
0.01736933
0.0575165
0.09498873
0.1164624
0.135978
0.153507
0.1647111
0.1692986
0.1647939
0.1525895
0.1376133
0.1241154
0.1125506
0.08783492
0.02964638
0.005868146
0.03050878
0.04401988
0.050642
0.05092181
0.04614658
0.04863442
0.04953927
0.04903496
0.04747026
0.04517769
0.04194739
0.03829489
0.03467483
0.03102696
0.02681507
0.02195212
0.01694809
0.01819851
0.04486915
0.06863345
0.09309794
0.1148147
0.1303843
0.1415487
0.1469637
0.1455962
0.1388986
0.1290875
0.1178385
0.1060143
0.09177227
0.06653295
0.0267432
0.003962109
0.02539536
0.03956257
0.04254051
0.008227406
0.01003027
0.01242152
0.01265439
0.01256059
0.01232744
0.01202711
0.01171074
0.01138152
0.01102625
0.01062469
0.0101448
0.009526237
0.009059284
0.01644454
0.02294335
0.02709607
0.03027627
0.0326144
0.03401858
0.03457906
0.03450128
0.03404064
0.03327282
0.03213624
0.03065877
0.02870396
0.02587901
0.02140973
0.006016138
0.02527952
0.01868764
0.01534842
0.02594574
0.02527526
0.01868558
0.0153469
0.01867521
0.02515897
0.004784329
0.02800162
0.01866956
0.02515653
0.004784771
0.01049459
0.0008872417
0.01434135
0.01049696
0.0008868185
0.01532136
0.0008007569
0.01101218
0.01531899
0.000800405
0.003131389
0.02405901
0.01516154
0.02378051
0.003132488
0.02405757
0.01516347
0.01351067
0.01165673
0.0005867829
0.01351244
0.01165845
0.003802331
0.01314697
0.03492641
0.003806335
0.01314929
0.03492051
0.01417941
0.01714017
0.0205643
0.01558441
0.01418126
0.01714088
0.02056464
0.01389964
0.003962439
0.01388217
0.03501816
0.02539087
0.03501861
0.04366375
0.03956349
0.04366413
0.02097568
0.04254175
0.02097345
0.0003356413
0.0143488
0.01136984
0.0100603
0.01137484
0.01006935
0.0003436226
0.0005792223
0.005850982
0.005877318
0.005998307
0.002858524
0.00285432
0.006063788
0.002444292
0.03274672
0.03607428
0.002333994
0.002444082
0.03274676
0.03607115
0.04396303
0.04000582
0.04813744
0.01737082
0.04395459
0.04000684
0.04813588
0.01189928
0.004833302
0.01256031
0.005867846
0.01189832
0.004838898
0.01256161
0.03385031
0.02892866
0.03436964
0.03050695
0.03384868
0.02892689
0.03436762
0.04691366
0.04219355
0.04557875
0.04401711
0.04691107
0.04219132
0.04557641
0.05027787
0.04614962
0.0406422
0.05063846
0.0502749
0.0461476
0.04064022
0.001489765
0.001489083
0.006222157
0.003962919
0.006203824
0.003863728
0.006202381
0.003852246
0.00623148
0.02821515
0.02538754
0.02877101
0.02375908
0.02876015
0.02374917
0.02822331
0.04105299
0.03954855
0.04162644
0.03876404
0.0416104
0.03874892
0.04106656
0.03569596
0.04252177
0.03928689
0.04107954
0.03926975
0.04105908
0.0357102
0.01922441
0.004772173
0.01265277
0.01783491
0.01265506
0.01784354
0.01920822
0.01921878
0.004772415
0.0126521
0.01783027
0.01265341
0.01783979
0.01920325
0.0001739598
0.01049122
0.01054251
0.0004296799
0.01054628
0.0004207017
0.0001787793
0.0008814777
0.009294965
0.009285582
0.0001661472
0.0001609754
0.0003356768
0.01434671
0.01137255
0.01006504
0.01137311
0.01006926
0.0003437019
0.0001739774
0.01049017
0.01054571
0.0004300507
0.01054543
0.0004207764
0.0001788263
0.0008815145
0.009298342
0.009285369
0.0001663207
0.0001609953
0.004145848
0.0003415219
0.0001144812
0.000332516
0.0001155172
0.004137021
0.004145643
0.0003418504
0.0001144899
0.0003325572
0.0001155451
0.004136659
0.01688647
0.003117908
0.01683058
0.007891459
0.01683552
0.007920723
0.01688007
0.01688316
0.003118
0.01682809
0.007890854
0.01683337
0.007919834
0.01687749
0.013495
0.006691376
0.00975572
0.006729907
0.009745051
0.01160756
0.009453498
0.009441427
0.0005792164
0.005849672
0.005875982
0.01349432
0.006690486
0.009757131
0.006728602
0.009743077
0.01160532
0.009455013
0.009439486
0.006353702
0.003807773
0.002629146
0.002076639
0.002624899
0.002064913
0.006402954
0.00842722
0.01308183
0.02548305
0.0254158
0.008501352
0.005999269
0.00285902
0.002854387
0.006069707
0.006354974
0.003808515
0.002629723
0.002076714
0.002624917
0.002065538
0.006405852
0.008428169
0.01307937
0.025487
0.02541265
0.008509137
0.0183923
0.01414359
0.0118153
0.02013437
0.01179396
0.02011851
0.0184041
0.01839246
0.0141413
0.0118154
0.02013528
0.01179223
0.02011855
0.01840489
0.01112483
0.01389041
0.01165245
0.01441493
0.01164455
0.0144053
0.01113753
0.006210387
0.003962698
0.006203025
0.003827042
0.006201891
0.003836997
0.006201793
0.01110967
0.01388317
0.01163564
0.01439532
0.0116376
0.014397
0.01110074
0.03229928
0.03500612
0.03299265
0.03505387
0.03298141
0.03504113
0.03230788
0.02821102
0.02538502
0.02876166
0.02374901
0.02875568
0.02374462
0.02821536
0.03229633
0.03500546
0.03298884
0.03505222
0.03297912
0.03503977
0.03230331
0.04273573
0.04364545
0.04357164
0.04288462
0.04355424
0.04286541
0.04275097
0.04105118
0.03954799
0.04162394
0.03876201
0.04160843
0.03874736
0.04106461
0.04273407
0.04364489
0.04357028
0.04288419
0.0435528
0.04286475
0.04274938
0.03569623
0.04252184
0.03928565
0.041078
0.03926883
0.04105816
0.03571097
0.0269175
0.0158184
0.01983113
0.02594976
0.02691364
0.01581568
0.01982726
0.005957267
0.01100787
0.0115146
0.0007222752
0.01151283
0.0007161565
0.005953104
0.008280357
0.001559003
0.001955509
0.01432943
0.008266709
0.001557507
0.001954104
0.0005815386
0.0004204566
0.0004154883
0.0178576
0.02206483
0.01915158
0.02332656
0.01785364
0.02206448
0.01915113
0.01692166
0.0155791
0.01193798
0.01720891
0.01191515
0.01720482
0.01692802
0.01731502
0.02970831
0.03102947
0.02967831
0.03100473
0.03674973
0.03676511
0.01386715
0.004777663
0.007545321
0.01276217
0.007529983
0.01276254
0.01385906
0.01386586
0.004778025
0.007545479
0.01276287
0.007530229
0.01276284
0.01385779
0.0008837602
0.005075257
0.005056636
0.000883571
0.005076254
0.005057442
0.00693883
0.0008014627
0.008058812
0.0001790403
0.008051408
0.0001803841
0.006930272
0.00595687
0.0110065
0.01151443
0.0007226965
0.01151146
0.0007162338
0.005953934
0.006938126
0.0008014731
0.008054241
0.0001790324
0.008049767
0.0001804149
0.006929772
0.0114132
0.003122439
0.01187585
0.002835721
0.002850083
0.01187332
0.01141822
0.0171019
0.01514861
0.009207027
0.0189071
0.009236027
0.01890779
0.0170987
0.01141464
0.003123136
0.01187724
0.002839482
0.01187436
0.002852388
0.0114196
0.01709862
0.01514738
0.009206611
0.01890221
0.009235588
0.01890429
0.01709597
0.01162005
0.000364412
0.009723294
0.0003578871
0.009702078
0.0005816195
0.0004203129
0.0004153911
0.01162126
0.0003643489
0.009725688
0.0003578646
0.009703662
0.007926597
0.01309953
0.0005318512
0.01605032
0.01602107
0.0005236484
0.00797699
0.01397891
0.03488827
0.01938322
0.02953321
0.01940584
0.029495
0.0140313
0.007933316
0.01310112
0.0005318306
0.01605398
0.01602375
0.0005236654
0.007985358
0.01397842
0.03488289
0.01938253
0.02953102
0.01940443
0.02949145
0.01403601
0.01692084
0.01557685
0.01193774
0.01720596
0.01191374
0.01720314
0.01692756
0.005526965
0.004284346
0.001665129
0.000337408
0.004283638
0.001666912
0.00552799
0.005524553
0.0003383447
0.00428787
0.001670798
0.004283808
0.001668278
0.005523861
0.000580592
0.0004132923
0.0004146261
0.000495612
0.005866386
0.0004904148
0.0004881666
0.005867854
0.0004895165
0.0003370526
0.006012131
0.0003370934
0.002853646
0.005675285
0.005689273
0.005690265
0.002854007
0.005688994
0.006021406
0.0003371784
0.0003370949
0.01731299
0.02970833
0.0310313
0.02967654
0.03100499
0.03674757
0.03676375
0.01387156
0.004775711
0.007520884
0.01276648
0.01387363
0.007526503
0.01276392
0.0138698
0.004776028
0.007521117
0.01276568
0.01387216
0.007526607
0.01276372
0.00339471
0.003815402
0.0001750286
0.003815874
0.003393017
0.003488553
0.004303743
0.0004235747
0.004294485
0.00349543
0.003486546
0.00429022
0.0004228088
0.004291957
0.003484738
0.003396469
0.0001756
0.003820188
0.003816265
0.003401486
0.001046872
0.001048915
0.0008829524
0.005049486
0.00505501
0.0048602
0.009287287
0.001498228
0.00149506
0.004849926
0.001491224
0.004844048
0.00928505
0.001493185
0.004847662
0.001054101
0.001049945
0.0001625376
0.0001620092
0.005529447
0.004284452
0.001665337
0.0003374705
0.005528612
0.004286007
0.001667929
0.005528428
0.0003384109
0.004292047
0.001672424
0.004286812
0.001669471
0.00552853
0.003396884
0.003815753
0.0001750642
0.003393049
0.003818213
0.003491361
0.004307862
0.0004238217
0.004297611
0.003499183
0.003488868
0.004290402
0.0004230264
0.003484929
0.004294483
0.003399173
0.0001756379
0.00382422
0.003819182
0.003405237
0.001046919
0.001049468
0.0008827845
0.005049587
0.00505573
0.004862194
0.00928987
0.001499809
0.004851506
0.001496192
0.001491411
0.00484447
0.009287085
0.004848998
0.001494133
0.001055001
0.001050564
0.0001626468
0.0001621066
0.0002819118
0.002285304
0.002774624
0.004143224
0.002284074
0.002767181
0.0002801223
0.0003352873
0.001319576
0.001319353
0.0001301615
0.0001154629
0.002182731
0.002197435
0.0001333059
0.001317707
0.0003343371
0.001318931
0.0001296751
0.002210985
0.0001155073
0.002202415
0.0001286883
0.0002828
0.00413894
0.002281793
0.00275231
0.002283792
0.002762685
0.0002883933
0.0002820018
0.002285242
0.002774202
0.004143094
0.0002801595
0.002284011
0.002766482
0.0003354976
0.001319348
0.001319343
0.000130193
0.0001154654
0.002181425
0.002196597
0.0001333574
0.001317733
0.0003345216
0.001318977
0.0001297042
0.002210718
0.0001155097
0.0001287029
0.002201747
0.0002828986
0.004138695
0.002281354
0.002751047
0.002283671
0.002761828
0.0002885532
0.01140902
0.003121112
0.01187112
0.002851554
0.002849906
0.01187149
0.01140665
0.01125569
0.003588395
0.007907732
0.01192979
0.003599981
0.01192227
0.01126394
0.01124895
0.01191334
0.003604399
0.007911712
0.003601291
0.0119169
0.01124549
0.01140963
0.003121729
0.01187109
0.002851159
0.01187203
0.0114069
0.002851847
0.01125589
0.003589456
0.007906989
0.0119301
0.01192256
0.003600393
0.01126412
0.01124914
0.01191376
0.003603909
0.007910853
0.01124564
0.01191722
0.003601442
0.004739009
0.004735964
0.005922142
0.01090185
0.006714709
0.01090377
0.005917821
0.006627547
0.01040256
0.009745565
0.01039571
0.006633447
0.005920323
0.01090622
0.00671951
0.0109048
0.005920533
0.006623784
0.01039095
0.009742074
0.01039113
0.006621968
0.004741021
0.00475261
0.01161068
0.0003550844
0.009696673
0.0003569936
0.00969573
0.009320936
0.009442277
0.009302221
0.00929809
0.009438646
0.00929682
0.0005806639
0.0004132696
0.0004145378
0.0004954178
0.005864917
0.0004902833
0.0004881398
0.005866346
0.0004893978
0.004738838
0.004735163
0.00592135
0.01090294
0.006713594
0.0109046
0.005917255
0.006628193
0.01040291
0.009746285
0.01039566
0.006634653
0.005919465
0.01090669
0.006718226
0.01090552
0.005919228
0.006624265
0.01038974
0.009742296
0.006621282
0.01039062
0.004740912
0.004752905
0.01161132
0.0003551558
0.009694509
0.0003569804
0.009696658
0.009322966
0.009443106
0.009303596
0.009296256
0.00943897
0.009297651
0.007336204
0.0002562499
0.01394318
0.008441878
0.0002575067
0.01395123
0.007328947
0.007914449
0.01308765
0.0005201919
0.015997
0.01600169
0.0005225792
0.007903906
0.003653364
0.003685956
0.003646848
0.003640596
0.007346199
0.008451957
0.0002625792
0.01399784
0.0002582197
0.01396847
0.007387957
0.0003370874
0.006016443
0.0003370972
0.002853875
0.005674099
0.00568833
0.005689664
0.002854155
0.005688121
0.006026344
0.0003369935
0.0003370731
0.007342106
0.0002563241
0.01394377
0.008447371
0.007329185
0.000257594
0.01395594
0.007920207
0.01308856
0.0005202857
0.01599528
0.01600242
0.0005226048
0.007904098
0.003657804
0.003691605
0.00365077
0.003641151
0.007353315
0.008458343
0.0002626958
0.01400703
0.0002583108
0.01397608
0.007396867
0.0005847749
0.0003781414
0.0003767889
0.009370541
0.004782525
0.005596405
0.008816139
0.005593858
0.00881289
0.009373441
0.009370582
0.004783006
0.005596658
0.008816834
0.005594078
0.008813552
0.009373485
0.0008864864
0.002487789
0.002483777
0.0008861694
0.00248648
0.002482646
0.008044325
0.003128394
0.008392013
0.002684664
0.002685247
0.008390621
0.008043031
0.008045333
0.003129401
0.008393125
0.002686057
0.008391661
0.002686509
0.00804419
0.00821777
0.01350241
0.01161569
0.01168998
0.01168194
0.01160939
0.008208692
0.0005848939
0.0003781818
0.0003768279
0.008217317
0.0135034
0.01161818
0.01168914
0.01161161
0.01168086
0.008208464
0.001483015
0.001113146
0.0007047728
0.0003360224
0.001113297
0.0007051699
0.001482828
0.001487899
0.0003412388
0.001119634
0.0007124206
0.001118788
0.0007108676
0.001488791
0.0005794942
0.0003723286
0.0003725723
0.00238545
0.005856757
0.0004114438
0.002393888
0.0004093735
0.0004044971
0.002402183
0.005874013
0.002400866
0.0004047943
0.08134712
0.00221668
0.002854673
0.02819298
0.00220635
0.02818694
0.08137874
0.08130661
0.02817642
0.002208597
0.002854469
0.00220972
0.02817655
0.08130614
0.009362137
0.004772972
0.005582423
0.008806379
0.009361952
0.005583099
0.008806678
0.009362275
0.004773236
0.005582714
0.00880636
0.009361868
0.005583427
0.008806803
0.0008511992
0.001006685
0.0001741497
0.001006955
0.0008509998
0.001154307
0.001224144
0.0004272293
0.0001499432
0.001222474
0.0001484296
0.00115776
0.001147593
0.0001451711
0.001215931
0.0004211742
0.001216381
0.0001454278
0.001147143
0.0008558137
0.000177465
0.001013409
0.001011967
0.0008568171
0.0004173482
0.000417721
0.0008818346
0.002473623
0.002474642
0.0004265112
0.0004239628
0.0001647162
0.000161191
0.001483492
0.00111322
0.0007048595
0.0003360689
0.001482946
0.001113629
0.0007054019
0.00148943
0.0003413147
0.001120762
0.0007129881
0.001119829
0.0007113806
0.001490438
0.0008515093
0.001006722
0.0001741753
0.0008510092
0.001007282
0.001156053
0.001225843
0.0004275664
0.0001501017
0.001224074
0.0001485672
0.001159694
0.001148081
0.0001452007
0.001216033
0.0004212941
0.001216802
0.001147181
0.0001454774
0.0008567872
0.0001775094
0.001014458
0.001012904
0.0008579287
0.0004173868
0.0004177616
0.0008818017
0.002473675
0.002474414
0.0004265527
0.0004240084
0.0001648698
0.0001612439
0.000339096
0.0006500817
0.0006489542
0.0006021929
6.633159e-05
0.0001153113
0.001142634
0.001143108
6.700088e-05
0.0006002567
0.0006429782
0.0003328984
0.0006434224
0.0006088259
0.001144526
6.699913e-05
0.000115514
0.001144372
6.702581e-05
0.0006092982
0.0003393893
0.0006504299
0.00064927
0.0006022212
6.635667e-05
0.0001153147
0.001142439
0.001143017
6.702179e-05
0.0006002497
0.0006429865
0.0003329988
0.0006435313
0.0006088479
0.00114449
6.703426e-05
0.0001155196
0.001144381
0.0006092721
6.703088e-05
0.008048222
0.003118467
0.008389086
0.002682184
0.002682332
0.008389043
0.0080476
0.008048263
0.003118736
0.008388989
0.002682179
0.008389148
0.008047473
0.002682617
0.008217749
0.01349632
0.01160297
0.01167427
0.01167607
0.011605
0.008219902
0.005800712
0.008367246
0.006699375
0.0008735676
0.008375592
0.0008776324
0.005789212
0.005832638
0.0008813126
0.008407215
0.006727199
0.00840462
0.0008812969
0.005832683
0.0005795231
0.000372314
0.0003725688
0.002386255
0.005855472
0.0004114427
0.00239451
0.0004093716
0.0004044917
0.002401502
0.005872501
0.00240035
0.0004047849
0.008217142
0.01349647
0.01160375
0.01167294
0.0116064
0.008218637
0.01167472
0.005799993
0.008366955
0.006698439
0.0008733757
0.008375203
0.0008774341
0.005788567
0.005830919
0.0008811674
0.008406262
0.006725815
0.00840357
0.005831514
0.0008810939
0.0007178591
0.0005810188
0.005360498
0.006363006
0.0005815705
0.00537626
0.0007169262
0.003975459
0.004018593
0.002624651
0.005724899
0.005732754
0.004016738
0.003957827
0.003979668
0.005744787
0.004017396
0.002624557
0.005741129
0.004017032
0.003979287
0.0007196793
0.00638101
0.0005832159
0.005458484
0.0005825204
0.005410805
0.0007143774
0.08135642
0.002217172
0.0028551
0.02819678
0.002206723
0.0281905
0.08138768
0.08131169
0.02817694
0.002208912
0.002854563
0.08130764
0.00220984
0.02817757
0.0007180811
0.0005812106
0.005361652
0.006365416
0.0007171515
0.0005817586
0.00537808
0.003980127
0.004020285
0.002624932
0.00573862
0.004017875
0.005739666
0.003968803
0.00398166
0.00574579
0.004017522
0.002624745
0.004017586
0.003979979
0.005744602
0.0007197275
0.006383885
0.0005831778
0.005460313
0.0005826491
0.00541278
0.0007140465
0.0150033
0.01200617
0.0118036
0.01481333
0.01479976
0.01199428
0.01501521
0.0149919
0.01478646
0.01198547
0.01179528
0.0147897
0.01198607
0.01498485
0.01500328
0.01200676
0.01180324
0.01481337
0.01199412
0.0147993
0.0150155
0.01499078
0.01478504
0.01198338
0.0117943
0.01198509
0.01498356
0.01478874
0.00409556
0.0007194437
0.002186431
0.004091137
0.00218331
0.005153757
0.005156768
0.002180563
0.004086623
0.0007181345
0.004087511
0.002181808
0.005151563
0.005150784
0.0005834697
0.0003742724
0.0003757964
0.0003622725
0.0004185588
0.0003609424
0.0003584523
0.000417366
0.0003599667
0.009366986
0.004780045
0.005589079
0.008809023
0.00559146
0.008810471
0.009364676
0.009367042
0.004780471
0.005589264
0.008809548
0.005591591
0.008811066
0.00936477
0.0002135313
0.00021531
0.000885566
0.00247868
0.002483025
0.003119456
0.005065304
0.0004469377
0.003114512
0.0004453049
0.0004428446
0.003108876
0.005062778
0.003113339
0.0004445397
0.0002174239
0.0002161955
0.000213502
0.0002152657
0.0008852707
0.002477911
0.002481951
0.003118504
0.005066298
0.0004471237
0.00311366
0.0004454789
0.0004429713
0.003108309
0.005063747
0.003112567
0.0004446873
0.0002173639
0.0002161461
0.0003964994
0.0001802092
0.003581447
0.003583263
0.0003978976
0.003897635
0.003902427
0.003590313
0.0003981749
0.0001803318
0.003587105
0.0003981077
0.003896633
0.003896759
0.004099246
0.000719774
0.002187091
0.004094161
0.002183773
0.005156537
0.005160134
0.002180483
0.004087023
0.0007184035
0.004089373
0.002182152
0.005153177
0.005151045
0.0003964781
0.0001802244
0.003581061
0.003582998
0.0003979313
0.003898037
0.003902741
0.003590101
0.0003982139
0.0001803455
0.003586925
0.000398155
0.003896959
0.003896893
0.008045636
0.00312673
0.002683598
0.008389556
0.002685156
0.008389883
0.008046588
0.007747364
0.002644679
0.002844087
0.007660187
0.002647055
0.00766351
0.007744556
0.007749512
0.007669899
0.002646804
0.002846214
0.002647109
0.007751092
0.007666605
0.01199836
0.009224116
0.01267353
0.01266432
0.01199433
0.01400388
0.01401087
0.01265452
0.01198944
0.009228663
0.012658
0.01199181
0.01399959
0.01399708
0.008046497
0.003127669
0.008390338
0.002684446
0.008390803
0.002686352
0.008047261
0.007748651
0.002646362
0.002847461
0.007661134
0.002648581
0.007664334
0.007745944
0.007750539
0.007670264
0.002647826
0.002849359
0.002648542
0.007751801
0.007667221
0.0120005
0.009223575
0.01267432
0.01266504
0.01199629
0.01400479
0.01401186
0.01265496
0.01199047
0.009228009
0.01265857
0.01199331
0.01399989
0.01399692
0.003539376
0.002642905
0.003525485
0.002656906
0.00412456
0.005863457
0.0003615399
0.00583446
0.004143634
0.004116941
0.005809337
0.000360488
0.005824794
0.004103219
0.003546599
0.002679806
0.002663718
0.003562561
0.0005835836
0.0003742953
0.0003758353
0.0003623434
0.000418431
0.0003610075
0.0003584937
0.0004172484
0.00036003
0.003540744
0.002644139
0.00352667
0.002658416
0.004126193
0.005866133
0.0003614893
0.005837012
0.004145357
0.004118508
0.005811462
0.0003604438
0.00582726
0.004104596
0.003548025
0.002681528
0.002665307
0.003564083
0.007590226
0.00577979
0.0005280906
0.002304243
0.005763415
0.002288231
0.007607916
0.007573476
0.002271366
0.005738053
0.0005270061
0.005748919
0.007558578
0.002282559
0.007595699
0.005784132
0.0005280814
0.00230759
0.005767599
0.002291327
0.007613596
0.007578556
0.00227388
0.005741545
0.0005270027
0.00575281
0.007563106
0.002285543
0.00148355
0.0003362777
0.001115029
0.0007069541
0.001484916
0.001113968
0.0007056777
0.001487019
0.00034044
0.00111654
0.0007080351
0.001485622
0.00111751
0.0007098036
0.0005798494
0.000373502
0.0003728583
0.0003565383
0.0004135669
0.0003567758
0.0003576941
0.0004138736
0.000357057
0.001827357
0.000493577
0.001832299
0.005859032
0.002399795
0.0004064593
0.002395335
0.0004083236
0.0004923826
0.001835426
0.001833453
0.001836385
0.0004884513
0.001835989
0.005871839
0.002399494
0.000405758
0.002400028
0.0004050753
0.0004887478
0.001835367
0.001835566
0.0004869782
0.03388549
0.03388363
0.000487964
0.001352193
0.001824205
0.0003370487
0.01075285
0.01075241
0.001825226
0.001352121
0.0003524974
0.001425778
0.001426706
0.0003525688
0.001352926
0.01075117
0.000337073
0.001829332
0.01075195
0.001354872
0.001826989
0.0003529015
0.001431039
0.0003540556
0.001427716
0.0004868811
0.03388235
0.03388265
0.0004865816
0.08402144
0.0480829
0.08401771
0.04807304
0.08360639
0.008578176
0.008567998
0.08361288
0.08134637
0.002853758
0.002208049
0.02817912
0.08132192
0.002207703
0.02818214
0.08219439
0.03059407
0.005684674
0.03167742
0.03187279
0.03058407
0.08221678
0.08360619
0.008571657
0.08359886
0.008572478
0.08219394
0.03190462
0.0305784
0.005687698
0.08217723
0.0318842
0.03058043
0.08402186
0.04776989
0.04806712
0.08402185
0.08401567
0.04808229
0.04807735
0.08401774
0.08216634
0.03057266
0.005690034
0.03189819
0.03189896
0.03057257
0.08216602
0.08359427
0.008573638
0.008582584
0.08359417
0.08130839
0.002854458
0.002208469
0.0281785
0.08132203
0.002210038
0.02817739
0.08359479
0.008572993
0.08359888
0.008583852
0.08216763
0.03190354
0.005689363
0.03057511
0.03189899
0.0821773
0.03057274
0.08401577
0.04807591
0.0480763
0.08401575
0.000490756
0.03388474
0.0004887674
0.03386931
0.001361287
0.001856497
0.0003368491
0.01054511
0.01072585
0.001845699
0.00136857
0.0003572007
0.00145514
0.001443687
0.0003599063
0.001359287
0.01074994
0.001833244
0.0003369562
0.001356168
0.01073456
0.001838659
0.0003564645
0.001433797
0.0003547868
0.001440641
0.0004922851
0.03344845
0.03386066
0.0004957608
0.009363246
0.00477431
0.005586506
0.008807959
0.009363765
0.00558458
0.008807354
0.009363433
0.004774586
0.005586706
0.008808359
0.00936386
0.005584794
0.008807599
0.0008334681
0.0008187347
0.000818793
0.000833247
0.0008515388
0.0001743586
0.001008894
0.001007341
0.0008527095
0.0008337418
0.0008203463
0.0008190308
0.0008350918
0.001153009
0.0004263219
0.001219659
0.0001464964