/*--------------------------------*- C++ -*----------------------------------*\
| =========                 |                                                 |
| \\      /  F ield         | OpenFOAM: The Open Source CFD Toolbox           |
|  \\    /   O peration     | Version:  v1706                                 |
|   \\  /    A nd           | Web:      www.OpenFOAM.com                      |
|    \\/     M anipulation  |                                                 |
\*---------------------------------------------------------------------------*/
FoamFile
{
    version     2.0;
    format      ascii;
    class       volScalarField;
    location    "440";
    object      p;
}
// * * * * * * * * * * * * * * * * * * * * * * * * * * * * * * * * * * * * * //

dimensions      [0 2 -2 0 0 0 0];


internalField   nonuniform List<scalar> 
32305
(
-3.352589
-3.577126
-4.076434
-4.619116
-5.152331
-5.655428
-6.11391
-6.520145
-6.870356
-7.164293
-7.404148
-7.59375
-7.737823
-7.841421
-7.909519
-7.94672
-7.95714
-7.944154
-7.909674
-7.853637
-7.775047
-7.671073
-7.535552
-7.359132
-7.128664
-6.826808
-6.432394
-5.922119
-5.275637
-4.481471
-3.543592
-2.550506
-1.793005
-1.35338
-3.282012
-3.605359
-4.098287
-4.648339
-5.183485
-5.688788
-6.148337
-6.554669
-6.904008
-7.196359
-7.43418
-7.621564
-7.763451
-7.865056
-7.931473
-7.967451
-7.977368
-7.96504
-7.932092
-7.878852
-7.805463
-7.709735
-7.586329
-7.426834
-7.219357
-6.948091
-6.59345
-6.133565
-5.54851
-4.828208
-3.983
-3.064251
-2.23946
-1.916079
-3.49987
-3.918712
-4.357085
-4.882023
-5.390645
-5.873626
-6.311729
-6.698069
-7.028751
-7.303938
-7.526163
-7.699602
-7.829175
-7.92006
-7.977268
-8.005489
-8.009142
-7.992213
-7.956193
-7.902585
-7.832754
-7.744759
-7.634067
-7.493085
-7.310909
-7.072872
-6.760168
-6.350537
-5.821604
-5.160096
-4.382329
-3.550065
-2.819698
-2.579402
-3.992609
-4.358735
-4.716532
-5.194148
-5.66223
-6.112948
-6.521569
-6.88163
-7.188622
-7.442625
-7.646052
-7.803001
-7.918302
-7.996958
-8.043821
-8.063505
-8.060445
-8.038272
-7.999318
-7.947056
-7.883842
-7.808101
-7.716275
-7.602057
-7.456089
-7.265311
-7.012223
-6.674263
-6.226266
-5.650159
-4.963369
-4.233837
-3.631264
-3.451152
-4.537805
-4.836997
-5.133248
-5.554779
-5.972758
-6.383761
-6.756135
-7.083698
-7.361436
-7.589465
-7.770113
-7.907367
-8.005828
-8.070185
-8.104939
-8.114469
-8.102838
-8.071876
-8.027313
-7.975245
-7.916424
-7.850289
-7.774313
-7.683634
-7.570709
-7.424675
-7.230145
-6.965117
-6.602545
-6.118676
-5.532088
-4.90543
-4.407584
-4.253889
-5.067655
-5.31127
-5.558691
-5.924771
-6.28842
-6.653891
-6.986294
-7.278633
-7.525244
-7.726329
-7.884038
-8.002101
-8.08473
-8.13614
-8.160373
-8.161357
-8.141524
-8.104208
-8.057064
-8.00575
-7.951131
-7.893339
-7.830749
-7.759931
-7.675315
-7.568598
-7.427397
-7.231576
-6.95403
-6.564978
-6.081567
-5.544146
-5.128242
-4.983416
-5.553091
-5.749857
-5.957167
-6.272122
-6.58524
-6.904408
-7.195985
-7.453158
-7.669037
-7.843871
-7.979584
-8.07952
-8.147329
-8.186648
-8.201053
-8.193517
-8.164994
-8.121982
-8.073449
-8.02246
-7.97091
-7.919203
-7.866337
-7.809967
-7.746244
-7.669335
-7.57034
-7.432491
-7.232391
-6.934387
-6.547071
-6.084754
-5.735518
-5.59305
-5.97254
-6.130925
-6.305868
-6.576294
-6.845162
-7.122481
-7.375805
-7.600268
-7.788331
-7.939883
-8.056567
-8.141275
-8.197
-8.22681
-8.233696
-8.217121
-8.181477
-8.135276
-8.084563
-8.033302
-7.983597
-7.935878
-7.889389
-7.842403
-7.792268
-7.73498
-7.664634
-7.568439
-7.430719
-7.209862
-6.904911
-6.503942
-6.20814
-6.064488
-6.314952
-6.442638
-6.591961
-6.825185
-7.057383
-7.299272
-7.520216
-7.716471
-7.880919
-8.013246
-8.114543
-8.18724
-8.233672
-8.256303
-8.256617
-8.233665
-8.192405
-8.142231
-8.088887
-8.036748
-7.98779
-7.942189
-7.899142
-7.85716
-7.814261
-7.76761
-7.713606
-7.642788
-7.548143
-7.385488
-7.144573
-6.789485
-6.533268
-6.384695
-6.576556
-6.679912
-6.809461
-7.012841
-7.216288
-7.430158
-7.625687
-7.799997
-7.945997
-8.063655
-8.153655
-8.217901
-8.25827
-8.276976
-8.27172
-8.243134
-8.198346
-8.144935
-8.089381
-8.036128
-7.986921
-7.94167
-7.899576
-7.859085
-7.818236
-7.774479
-7.725505
-7.665206
-7.594579
-7.468869
-7.271127
-6.943565
-6.709463
-6.547906
-6.757858
-6.842045
-6.956954
-7.137433
-7.319684
-7.512953
-7.690228
-7.849036
-7.98228
-8.089856
-8.172351
-8.231359
-8.26838
-8.285277
-8.277824
-8.247312
-8.200918
-8.144484
-8.08658
-8.03201
-7.982133
-7.936444
-7.893803
-7.852376
-7.810054
-7.76423
-7.712928
-7.65152
-7.582977
-7.462466
-7.287812
-6.971711
-6.739249
-6.547899
-6.861302
-6.929865
-7.034358
-7.198385
-7.366656
-7.546778
-7.713155
-7.863171
-7.989526
-8.091924
-8.170695
-8.227416
-8.263835
-8.280199
-8.27278
-8.242406
-8.196348
-8.13936
-8.081765
-8.027649
-7.977177
-7.929813
-7.884863
-7.840539
-7.794619
-7.744369
-7.687238
-7.617693
-7.535965
-7.396808
-7.208928
-6.865196
-6.608657
-6.362605
-6.894417
-6.950615
-7.04786
-7.200654
-7.360735
-7.533726
-7.695273
-7.842057
-7.966458
-8.067766
-8.146087
-8.203133
-8.241955
-8.257724
-8.250056
-8.224009
-8.182535
-8.130939
-8.080849
-8.031195
-7.979665
-7.928132
-7.878535
-7.829338
-7.778051
-7.721481
-7.655996
-7.574906
-7.471465
-7.294194
-7.044549
-6.615045
-6.290814
-5.952771
-6.865833
-6.912393
-7.004733
-7.149305
-7.305078
-7.474846
-7.635863
-7.783545
-7.909966
-8.013555
-8.093977
-8.153332
-8.194096
-8.212857
-8.209313
-8.192425
-8.163266
-8.127807
-8.098828
-8.058827
-8.000552
-7.935816
-7.874769
-7.817057
-7.758899
-7.695866
-7.621799
-7.525866
-7.387073
-7.144886
-6.783362
-6.203206
-5.753254
-5.268005
-6.780967
-6.819704
-6.908887
-7.04783
-7.202706
-7.373075
-7.537685
-7.690253
-7.822215
-7.930836
-8.015621
-8.079614
-8.121324
-8.142254
-8.14792
-8.147482
-8.143042
-8.144973
-8.164255
-8.14204
-8.065083
-7.976382
-7.901918
-7.83497
-7.768617
-7.697297
-7.609848
-7.485134
-7.28414
-6.92965
-6.385202
-5.582583
-4.945645
-4.244484
-6.645652
-6.678007
-6.76515
-6.900508
-7.057349
-7.232052
-7.404264
-7.565367
-7.705618
-7.821403
-7.911749
-7.979518
-8.022991
-8.046346
-8.063556
-8.087437
-8.129511
-8.215552
-8.339629
-8.333047
-8.173245
-7.999621
-7.889369
-7.815705
-7.748898
-7.67391
-7.574146
-7.411518
-7.11572
-6.584062
-5.786117
-4.703007
-3.819678
-2.817076
-6.466612
-6.494265
-6.579604
-6.712542
-6.873478
-7.056272
-7.239833
-7.412552
-7.56376
-7.688249
-7.784397
-7.853337
-7.896847
-7.920655
-7.946404
-7.997831
-8.111979
-8.315647
-8.693847
-8.756259
-8.4228
-8.155513
-7.998487
-7.883523
-7.803908
-7.729169
-7.598419
-7.337503
-6.860186
-6.072029
-4.969692
-3.578442
-2.388579
-0.9904574
-6.252195
-6.276686
-6.358782
-6.48906
-6.655761
-6.850793
-7.049301
-7.237817
-7.40311
-7.537916
-7.64025
-7.706921
-7.74275
-7.759722
-7.784249
-7.863159
-8.093556
-8.21352
-8.833807
-9.217639
-8.431519
-7.819321
-7.83387
-7.844494
-7.765238
-7.614025
-7.379435
-6.984707
-6.327582
-5.322179
-3.991176
-2.383066
-0.9206549
0.8052683
-6.012582
-6.036713
-6.111843
-6.23713
-6.409056
-6.619145
-6.836999
-7.046003
-7.22845
-7.374575
-7.480377
-7.542409
-7.562794
-7.553403
-7.538174
-7.565824
-7.786992
-8.361726
-10.35613
-10.98772
-8.44758
-8.562865
-7.798641
-7.866568
-7.791682
-7.575
-7.257162
-6.740694
-5.945513
-4.833686
-3.469081
-1.913705
-0.4246329
1.463822
-5.765947
-5.782388
-5.841328
-5.954966
-6.131908
-6.37053
-6.61677
-6.853503
-7.056909
-7.215571
-7.323566
-7.376293
-7.373311
-7.317217
-7.21396
-7.070214
-6.922495
-6.952975
-9.120436
-5.840037
-8.774681
-7.185718
-7.655816
-7.753305
-7.589916
-7.299601
-6.78511
-5.9638
-4.829967
-3.459851
-1.945818
-0.6453318
0.8348481
-5.327192
-5.562775
-5.58211
-5.663257
-5.831519
-6.095065
-6.377289
-6.653773
-6.883952
-7.058194
-7.170809
-7.216643
-7.193529
-7.100414
-6.936376
-6.695479
-6.398072
-5.969462
-5.368244
-6.070487
-6.958506
-8.074414
-8.320795
-8.434062
-8.333098
-8.084419
-7.726156
-7.24481
-6.531321
-5.518981
-4.269389
-2.798819
-1.444545
-0.199589
-5.064984
-5.104835
-5.124903
-5.1898
-5.310179
-5.887534
-6.189741
-6.507509
-6.763904
-6.951277
-7.066422
-7.104746
-7.064417
-6.942094
-6.735702
-6.442328
-6.102061
-5.701988
-5.566322
-6.173396
-7.241527
-8.199135
-8.412001
-8.398726
-8.219163
-7.915661
-7.511198
-6.965861
-6.216645
-5.250261
-4.092029
-2.753826
-1.513262
-0.4650312
-4.717569
-4.753069
-4.770897
-4.792226
-4.835327
-5.611217
-6.018175
-6.371968
-6.652494
-6.861793
-6.992054
-7.038776
-7.002449
-6.879896
-6.669544
-6.369773
-6.01771
-5.598187
-5.520511
-6.117746
-7.143519
-7.895989
-8.219162
-8.283281
-8.140137
-7.840053
-7.404153
-6.799397
-5.977155
-4.918527
-3.629074
-2.191565
-1.004909
0.2775687
-9.381882
-9.839286
-10.73432
-9.322857
-9.871157
-10.57379
-11.47026
-9.815681
-7.83433
-9.282441
-8.850308
-10.55013
-8.32292
-10.19978
-11.39978
-9.440261
-11.09149
-12.26014
-10.38512
-9.382023
-9.66556
-11.84809
-10.11888
-10.39551
-9.04341
-6.282572
-5.380338
-7.441568
-9.993421
-6.771069
-6.236408
-5.334282
-6.188995
-10.07173
-6.190204
-7.103743
-0.1158584
-6.151835
-9.118312
-0.8308237
-7.067361
-9.846719
-5.874957
-5.513708
-5.64721
-6.10109
-6.729118
-5.999995
-6.132696
-4.710565
-5.442143
-5.441739
-4.670511
-5.4857
-5.405689
-4.657401
-5.50665
-5.394512
-4.467784
-5.52966
-5.201722
-15.37482
-10.59818
-11.32923
-11.03789
-11.71727
-11.40332
-14.96064
-9.563734
-6.020154
-6.479822
-9.12658
-9.564162
-10.01005
-8.555273
-2.079262
-6.986848
-11.66215
-6.315791
-2.554852
-7.470923
-12.14455
-6.806294
-6.06343
-6.616691
-6.924159
-7.533522
-6.546938
-7.09932
-5.066785
-4.768445
-4.95714
-5.552535
-5.554156
-5.494891
-5.443955
-5.016639
-4.974079
-4.906007
-5.592066
-5.503878
-5.461081
-5.393286
-5.038144
-4.968196
-4.89283
-5.612228
-5.525543
-5.45581
-5.380716
-5.10688
-4.960076
-4.878841
-5.67731
-5.594428
-5.448172
-5.366851
-4.700453
-5.432046
-4.949638
-4.958861
-4.727079
-4.729573
-4.969247
-4.943174
-4.724674
-4.946702
-4.997204
-4.688125
-4.718271
-4.929844
-4.9612
-4.701625
-4.933784
-5.017567
-4.666578
-4.712214
-4.908019
-4.960097
-4.685638
-4.775946
-5.042186
-4.652262
-4.647409
-4.89546
-4.894134
-4.535681
-9.196504
-9.698897
-10.57757
-8.111463
-10.95186
-8.350101
-8.950955
-9.441163
-9.759849
-11.43639
-8.845222
-11.07449
-8.594671
-9.684834
-15.30695
-11.7834
-11.22122
-13.19733
-11.57464
-13.63272
-14.91554
-9.869269
-11.20893
-11.65342
-13.2192
-13.64798
-15.40551
-10.84331
-12.18832
-11.89701
-11.83998
-11.52596
-15.91117
-15.33763
-11.90627
-12.08065
-14.15286
-11.69738
-13.66353
-15.86482
-9.899596
-12.12943
-11.71472
-14.17581
-13.67883
-11.88689
-13.30326
-7.135721
-13.73044
-7.598371
-11.50921
-12.00987
-14.26235
-8.087841
-13.76135
-7.629145
-12.37091
-6.883575
-9.499815
-7.453492
-6.15407
-7.699816
-6.579904
-6.640557
-7.128259
-9.530351
-8.187707
-7.072957
-7.944577
-6.640921
-7.374609
-5.704399
-5.785095
-5.085681
-6.209184
-5.50945
-6.638877
-5.104647
-5.525394
-9.594299
-6.96972
-6.510309
-5.826503
-6.70416
-6.002469
-6.2702
-5.570355
-6.699609
-6.021053
-5.58624
-7.019403
-0.3330355
-9.002369
-12.42162
-9.44083
-12.71181
-6.676527
-8.255626
-6.559921
-7.352864
-7.779214
-7.831155
-9.187559
-10.47688
-10.07108
-9.471686
-7.140909
-0.5722036
-9.917534
-13.14791
-9.502327
-12.954
-7.529335
-8.316432
-6.620727
-8.20603
-7.900925
-8.746714
-5.723764
-6.238984
-5.214311
-5.709388
-5.576035
-5.953612
-5.481795
-5.967303
-6.360795
-6.069066
-6.439448
-5.697899
-6.197024
-6.212253
-4.94857
-4.95282
-4.713661
-4.710543
-4.955915
-4.948482
-4.715749
-5.17786
-5.200518
-5.454581
-5.371382
-5.212176
-5.161937
-5.400235
-5.18377
-5.19732
-5.443367
-5.423467
-5.199876
-5.188229
-5.413908
-4.96324
-4.912072
-4.721843
-4.701096
-4.966567
-4.94853
-4.716188
-5.191844
-5.242272
-5.42164
-5.443884
-5.1751
-5.204511
-5.433456
-5.209489
-5.157859
-5.456264
-5.438851
-5.212113
-5.19543
-5.451712
-4.938422
-4.899555
-4.745967
-4.649953
-4.993426
-4.896869
-4.690287
-5.181467
-5.263456
-5.402768
-5.451891
-5.153982
-5.207486
-5.426496
-5.186357
-5.145787
-5.482699
-5.392315
-5.239551
-5.144934
-5.432109
-5.023823
-5.288507
-5.389656
-5.390124
-5.141759
-5.142242
-5.277844
-8.971159
-10.4634
-9.345368
-9.707056
-9.460706
-11.1996
-9.835896
-11.69469
-11.34555
-10.55878
-12.9468
-10.80364
-13.36111
-11.31147
-8.633972
-9.439235
-6.734959
-8.938366
-9.122856
-9.925133
-7.21806
-9.328524
-7.19401
-7.39202
-5.485104
-5.775381
-5.591305
-6.457873
-6.218372
-6.263713
-6.079509
-5.644939
-5.612756
-5.152003
-5.383581
-5.513233
-5.626374
-5.401527
-6.429257
-6.54082
-5.898238
-6.777434
-6.133395
-6.835572
-6.580804
-9.492731
-9.462811
-10.46579
-8.488395
-10.64711
-8.600725
-9.363079
-10.10499
-10.01198
-11.3867
-9.345445
-11.19924
-9.212632
-10.22044
-9.638162
-11.14682
-11.38763
-10.15472
-12.10056
-11.91037
-11.51263
-9.908458
-10.05746
-10.36805
-10.30029
-10.78128
-11.13741
-11.81766
-11.46842
-11.29635
-13.87121
-11.04944
-13.42266
-12.17299
-11.63553
-10.15254
-10.7949
-11.2958
-10.54635
-10.84332
-11.99862
-7.44451
-9.263241
-8.21277
-7.150092
-7.346095
-8.346714
-7.32809
-6.402604
-5.73154
-5.938267
-5.814816
-6.369187
-6.058931
-6.156641
-8.057194
-9.783018
-9.070425
-8.100584
-8.959028
-7.865601
-8.186263
-6.647132
-5.853735
-6.857369
-6.548108
-6.430241
-6.303336
-6.890315
-6.391669
-6.814017
-5.500912
-7.03092
-5.668231
-9.848709
-8.147163
-7.913195
-6.939101
-7.760772
-6.415873
-7.548288
-6.215761
-7.539935
-6.318832
-6.959043
-6.655848
-6.779233
-7.170705
-7.345345
-7.203005
-9.461875
-5.76057
-7.086923
-5.923235
-7.311594
-6.864381
-8.088677
-6.86686
-7.906327
-7.510468
-7.388978
-7.688254
-8.262179
-7.324579
-9.704547
-6.488596
-7.817512
-6.165646
-7.555041
-7.717538
-5.888685
-5.857028
-6.007016
-6.115047
-5.635163
-5.870252
-6.132594
-12.25492
-13.06685
-13.32395
-15.17616
-12.88313
-13.14434
-12.37715
-12.13334
-15.1495
-12.62458
-12.90662
-12.82113
-13.08517
-12.01257
-9.357325
-7.629454
-7.420925
-7.091484
-6.235865
-7.301897
-7.540718
-6.26673
-7.331322
-2.536696
-8.932621
-2.358779
-9.760856
-7.677481
-7.944149
-8.210632
-9.823567
-8.015678
-8.858846
-2.228432
-2.305133
-6.551022
-7.270838
-6.627018
-7.020774
-6.376433
-7.078194
-7.308415
-9.622283
-9.521241
-10.89026
-8.836118
-9.747376
-10.70806
-8.716581
-9.989606
-9.948231
-10.95159
-8.958436
-9.8698
-11.13739
-9.083626
-13.18884
-12.93609
-15.11002
-12.75542
-13.37074
-12.85873
-12.283
-13.39872
-12.47361
-12.68079
-12.91762
-12.71798
-13.42687
-12.53462
-13.09706
-13.12752
-15.08414
-12.52539
-12.69641
-12.92821
-13.56717
-13.35886
-9.666045
-11.6271
-11.41718
-11.27126
-11.40497
-12.76696
-12.94874
-11.45526
-13.18844
-11.69425
-11.4678
-13.00845
-11.51474
-13.12307
-13.32943
-13.41391
-13.44202
-12.62339
-13.12825
-13.38538
-15.63595
-12.49995
-13.31334
-13.57455
-12.74758
-15.67056
-13.54677
-13.82903
-13.37422
-13.63835
-12.87267
-13.61928
-12.9975
-15.5692
-13.4322
-13.1856
-13.41235
-13.20655
-13.92249
-13.02753
-13.60385
-13.34818
-12.77949
-13.88898
-13.15853
-12.96541
-13.68102
-15.60454
-13.44773
-13.24957
-13.85105
-13.59789
-13.81975
-10.12174
-11.65784
-11.87839
-12.19125
-11.95692
-13.68875
-12.0064
-13.50139
-13.24983
-11.75543
-11.89704
-11.94329
-13.43826
-14.07612
-13.85182
-13.93823
-13.90461
-12.85284
-12.43443
-12.29277
-11.76149
-12.24994
-12.10086
-13.06356
-13.4989
-12.23162
-12.4157
-12.75222
-7.350901
-11.76919
-11.96132
-12.55682
-12.66025
-13.5266
-12.47679
-12.78149
-12.21685
-7.381248
-12.02637
-12.99263
-12.82357
-11.63474
-12.00091
-11.82633
-12.18824
-12.03424
-12.62123
-13.31458
-12.4959
-12.3543
-12.1305
-13.09435
-12.68057
-12.53174
-14.02467
-13.15503
-12.96941
-13.27409
-7.873766
-12.69367
-12.51578
-13.50913
-12.72174
-13.99046
-12.9074
-13.24195
-12.27842
-7.842538
-13.02333
-12.45757
-13.34687
-12.24995
-12.9241
-12.75025
-12.74185
-12.58828
-13.57581
-7.561342
-9.292034
-8.606092
-7.584103
-7.375536
-8.479357
-7.681596
-7.074312
-6.89313
-6.337543
-6.43522
-7.071298
-6.557526
-6.94532
-7.202963
-6.802789
-7.31179
-6.397992
-7.13106
-6.68002
-7.328241
-7.928855
-9.750589
-8.728478
-7.614632
-8.846655
-7.80404
-7.833804
-7.686454
-7.811547
-6.887429
-7.292509
-7.169428
-7.620692
-7.802914
-7.570099
-6.925059
-7.372765
-6.82546
-7.450573
-7.046989
-7.558136
-5.297882
-5.511336
-5.225277
-5.514845
-5.964556
-5.706544
-5.023489
-5.228426
-5.14252
-5.266736
-5.268132
-5.042569
-5.256228
-5.949835
-6.025811
-5.767901
-5.47019
-5.28968
-5.514936
-5.327406
-5.392169
-5.473115
-5.267156
-5.050505
-6.454717
-7.275461
-5.909468
-7.061587
-5.727904
-5.458232
-5.282894
-5.646574
-5.891838
-5.343368
-5.708439
-9.816222
-7.660088
-7.880662
-8.044042
-6.754772
-7.822893
-7.571338
-6.724481
-7.790926
-5.755492
-5.541809
-5.744193
-6.432819
-6.514398
-6.256039
-5.973007
-5.778127
-5.998733
-5.815569
-5.878973
-5.961369
-5.713969
-6.010793
-6.453216
-6.195123
-5.500683
-5.717008
-5.636967
-5.754115
-5.534118
-5.758411
-5.785914
-6.000069
-6.880319
-7.305853
-5.97021
-7.518042
-6.153561
-6.373524
-5.831308
-6.194202
-5.952577
-5.769722
-6.134147
-7.747358
-9.013064
-7.903512
-8.073525
-8.800082
-7.777723
-7.930661
-7.602777
-6.378485
-7.415252
-7.024892
-6.902306
-7.201332
-7.787769
-7.732421
-7.548075
-7.79396
-7.977639
-7.685998
-8.013249
-8.56143
-7.518513
-8.769796
-7.648341
-7.501989
-2.597519
-9.359571
-2.784579
-10.31129
-8.584841
-8.491326
-8.271539
-10.25173
-8.441441
-9.407829
-3.139183
-2.852757
-8.17352
-9.04342
-8.025333
-8.499685
-7.991474
-9.255634
-8.14334
-8.029378
-6.804557
-7.445654
-7.146716
-7.267899
-7.657944
-7.848645
-8.281125
-8.465142
-8.220531
-8.038514
-8.234212
-8.561338
-9.505687
-8.373341
-9.286179
-8.258163
-8.418282
-9.212215
-8.511182
-8.593791
-9.519404
-9.343875
-9.852283
-8.772908
-9.917495
-8.824051
-9.45065
-10.3147
-10.13802
-10.77094
-9.690843
-10.71312
-9.619005
-10.36884
-9.527629
-10.22472
-10.3163
-10.28821
-11.17294
-11.08008
-8.105008
-9.143265
-8.653851
-8.196251
-8.278977
-8.721788
-8.052018
-8.899643
-9.908493
-9.572703
-9.144785
-9.51762
-9.042666
-8.969763
-5.212387
-5.458742
-5.351405
-5.073436
-5.187027
-5.472377
-5.037611
-9.978178
-9.457916
-9.356009
-5.761978
-6.069752
-6.208154
-5.929412
-6.083632
-5.797909
-5.956092
-13.60205
-14.01749
-14.36248
-15.2864
-13.95708
-14.27212
-13.66263
-13.30662
-15.04685
-13.59924
-13.92866
-13.66101
-14.01559
-13.24688
-9.47373
-8.93137
-8.842097
-6.338563
-6.113711
-5.809701
-6.431183
-5.900423
-6.264855
-6.795792
-6.388634
-6.704718
-6.173535
-6.889608
-11.59168
-9.631873
-6.927953
-11.80132
-6.980969
-6.77046
-7.148091
-7.345746
-12.19558
-9.948239
-12.08346
-7.283956
-7.263921
-9.832573
-9.638847
-10.27914
-9.167751
-9.893251
-10.21883
-9.107627
-10.01591
-9.821762
-10.34027
-9.228793
-9.954349
-10.40224
-9.290761
-14.23302
-13.90931
-15.21896
-13.81912
-14.32301
-13.26187
-12.87662
-13.28635
-13.99676
-12.93836
-14.07028
-13.17232
-13.52273
-14.38843
-13.29956
-13.54248
-13.23871
-14.30031
-13.61343
-13.9738
-14.9874
-13.48159
-13.56173
-13.8751
-14.74765
-14.65753
-9.780241
-10.66711
-10.57728
-14.32422
-14.40746
-13.30314
-13.55771
-13.78652
-14.07899
-14.39336
-15.50105
-13.72412
-14.14158
-14.48835
-14.10661
-15.81318
-14.52228
-14.88598
-14.46082
-14.78766
-14.1701
-14.4484
-13.94005
-15.43333
-14.35378
-14.03442
-14.03257
-13.80129
-14.05686
-14.94625
-13.73963
-14.83559
-14.12808
-13.7385
-14.41905
-13.36116
-13.7581
-13.42353
-13.64425
-14.5145
-14.74323
-15.75276
-14.43566
-14.33093
-14.82942
-14.77864
-14.87436
-9.992733
-10.69764
-10.79103
-15.28388
-15.18149
-14.07453
-13.77356
-13.39023
-12.73025
-12.81937
-12.11765
-10.31661
-7.233979
-11.26518
-11.31835
-10.40672
-12.01146
-13.17029
-13.64047
-13.07969
-12.41508
-11.69936
-10.82056
-7.504991
-11.63651
-10.71267
-12.50915
-14.16378
-13.68527
-13.58932
-12.88962
-11.28264
-8.003191
-12.191
-12.12071
-11.15888
-12.9687
-13.20106
-13.85688
-13.29517
-12.6312
-11.76103
-10.83675
-7.720193
-11.82155
-12.54002
-10.94381
-8.390947
-9.409459
-9.09847
-8.626004
-8.536016
-9.037653
-8.451274
-8.57391
-9.623331
-9.159556
-8.656477
-9.220992
-8.512214
-8.749405
-5.272857
-5.582412
-5.71356
-5.419027
-5.300827
-5.592634
-5.45577
-5.550304
-5.709875
-5.844042
-5.703564
-5.775634
-5.797983
-5.492545
-5.850639
-6.162786
-6.144641
-6.148192
-6.083808
-6.071503
-5.911447
-9.687745
-8.96182
-9.055176
-7.287936
-6.878083
-6.759556
-7.195306
-6.665123
-6.295361
-6.826258
-6.602107
-6.918097
-6.387089
-5.700136
-5.948927
-5.835693
-5.541086
-5.959144
-5.516792
-5.667186
-6.345719
-6.628605
-6.639586
-6.653722
-6.570926
-6.562872
-6.41154
-6.03364
-6.193292
-6.205628
-6.331234
-6.266803
-5.972437
-6.285087
-1.837719
-6.577625
-9.950847
-6.899707
-6.459293
-9.806527
-1.951895
-5.055474
-7.007716
-9.193613
-5.588655
-5.706379
-7.132825
-4.922665
-5.187465
-5.949551
-7.389074
-9.255535
-5.827801
-7.262704
-5.314143
-1.734852
-6.784315
-6.239263
-9.431222
-6.345509
-9.632027
-1.652268
-7.628069
-12.55535
-10.4251
-7.837938
-12.55288
-7.772273
-7.732382
-7.384455
-7.406815
-12.21047
-10.13164
-7.271556
-12.31378
-7.467152
-2.201386
-6.699054
-10.07274
-7.264417
-2.073128
-6.823688
-10.17215
-5.659655
-7.850371
-9.745743
-6.432122
-7.737123
-6.311137
-5.765322
-5.550558
-6.07079
-7.510296
-9.685288
-7.626016
-5.435264
-6.191214
-2.340871
-7.392636
-7.088575
-10.2848
-6.952785
-10.24157
-2.499499
-5.53235
-5.388168
-5.334842
-5.28953
-5.409572
-5.509759
-5.410656
-5.653287
-5.648934
-5.752
-5.455045
-5.528676
-5.630704
-5.774269
-6.142102
-6.242997
-5.94474
-6.143424
-6.119729
-6.019245
-6.264601
-6.019089
-5.770789
-5.873881
-5.820755
-5.996471
-5.89615
-5.894413
-12.05419
-13.12483
-12.14713
-12.1758
-12.3397
-11.78617
-11.66164
-12.58656
-12.41988
-13.18295
-12.29764
-12.40172
-11.9104
-12.03397
-9.241901
-8.700374
-8.62024
-8.217069
-7.279144
-8.305613
-8.414914
-7.307136
-8.333147
-9.587372
-9.403985
-10.04072
-8.932692
-9.980281
-8.876989
-9.650706
-10.26005
-10.07552
-10.59114
-9.48247
-10.65322
-9.549264
-10.2009
-12.58615
-12.50624
-9.555414
-10.43247
-10.34612
-10.33234
-11.2626
-12.08989
-10.41137
-12.18213
-12.29681
-10.52531
-11.29504
-10.43983
-12.21104
-12.39387
-12.47949
-13.10332
-13.20633
-10.25487
-10.95159
-11.04864
-11.28231
-12.03155
-13.05129
-11.17679
-12.95752
-12.824
-11.04561
-12.00243
-11.14392
-12.92436
-13.33871
-13.24057
-10.4397
-10.5369
-11.38243
-11.49214
-10.5476
-12.60697
-12.45008
-11.73065
-10.77894
-10.5965
-11.60937
-10.66041
-12.74982
-12.88153
-12.91598
-13.67914
-13.0704
-12.79116
-12.89324
-12.40123
-12.52306
-12.64805
-12.54289
-13.614
-12.66676
-12.83232
-12.27934
-12.15693
-11.29635
-11.09531
-12.24354
-12.10694
-11.16121
-13.22381
-13.31304
-11.85359
-10.90203
-11.03087
-11.9782
-11.02891
-13.11981
-13.005
-8.158174
-9.173568
-8.39136
-8.85324
-8.307149
-8.789064
-8.214737
-7.832795
-7.97058
-7.232325
-7.218916
-8.06003
-7.276321
-7.764321
-7.900651
-7.392905
-8.175253
-7.260951
-8.089308
-7.964851
-7.333837
-5.604984
-6.124674
-6.152801
-6.280905
-5.722275
-5.972532
-5.848457
-6.533577
-5.959717
-6.185992
-6.408619
-5.839787
-6.09538
-6.218186
-8.830087
-9.877355
-9.403659
-8.909971
-9.462128
-9.009461
-8.76413
-8.628427
-8.918834
-7.99751
-8.137581
-8.823468
-8.071761
-8.683141
-8.573441
-7.942839
-8.69366
-7.964586
-8.791376
-8.51497
-8.006434
-6.462104
-6.674828
-7.009666
-6.892514
-6.333875
-6.584054
-6.70508
-6.6558
-6.081941
-6.613684
-6.775446
-6.206537
-6.462166
-6.340404
-6.19551
-5.805778
-6.289506
-5.713544
-6.185977
-6.598197
-6.907707
-6.710289
-6.103834
-6.215956
-6.837088
-6.93859
-6.743024
-6.307477
-6.163566
-5.598469
-5.683171
-6.066775
-9.946294
-9.218063
-9.321222
-9.162089
-8.046723
-9.066282
-8.931458
-8.012993
-9.032663
-6.894208
-6.322466
-6.805283
-6.413407
-6.94691
-7.545304
-7.669845
-7.472723
-7.049369
-6.915639
-7.354688
-7.639405
-7.444146
-6.823989
-6.923454
-6.544332
-6.444333
-7.011184
-6.918043
-6.660273
-7.048336
-7.267561
-6.720372
-7.361992
-6.853391
-6.982253
-7.487198
-6.841911
-7.078877
-6.780838
-7.045645
-7.393432
-7.711251
-7.576628
-7.810956
-8.214985
-7.51356
-8.124738
-7.769709
-7.652821
-8.004962
-7.390013
-7.780039
-7.451366
-7.593882
-8.094841
-13.54233
-15.25814
-13.83881
-14.15624
-13.48319
-13.89762
-14.2426
-13.36583
-15.07244
-13.78024
-14.12758
-13.42469
-13.7213
-14.04409
-9.444223
-8.728083
-8.812958
-8.646325
-7.538789
-8.557156
-8.442834
-7.508953
-8.528004
-6.490927
-7.184549
-6.584359
-6.144783
-6.553604
-6.021689
-6.46194
-5.930789
-7.214238
-6.705984
-6.61498
-6.947329
-7.449937
-6.856428
-6.358101
-6.583794
-6.052082
-6.674499
-6.143115
-7.41999
-6.736052
-6.826284
-9.053309
-3.544215
-3.661834
-8.957859
-9.195738
-10.50816
-2.47621
-5.30098
-5.193703
-10.44564
-9.289034
-8.891983
-8.885079
-8.792835
-8.984202
-9.164121
-5.068204
-2.416646
-10.31341
-5.178115
-9.067043
-10.38123
-8.860948
-8.666659
-8.766884
-8.761667
-9.084522
-3.784369
-3.669546
-9.176892
-6.465978
-5.205289
-6.574305
-5.07778
-6.926854
-10.19774
-11.08691
-6.806889
-6.897278
-9.696951
-11.93883
-7.097313
-7.014847
-11.81756
-7.037349
-6.398685
-5.24242
-7.777644
-4.961501
-5.097374
-5.253725
-6.30244
-6.934596
-11.22092
-7.052727
-11.09884
-6.405277
-5.237143
-5.332939
-7.86664
-6.51488
-5.116802
-5.284201
-6.459545
-4.866102
-5.067975
-6.36637
-6.697666
-5.213413
-5.333137
-6.581933
-6.646014
-5.572332
-8.147896
-5.488261
-5.380465
-5.511271
-6.761161
-7.186101
-11.47786
-11.37363
-7.301975
-7.140299
-9.886015
-11.95516
-7.159131
-7.022718
-12.06695
-7.221627
-7.178308
-11.23133
-7.060613
-11.36749
-6.638294
-5.253361
-8.083091
-5.390208
-5.364808
-6.52253
-5.450192
-6.705388
-5.456509
-5.341014
-6.820605
-8.82675
-3.536369
-8.925375
-3.420018
-8.892631
-9.923602
-2.232768
-4.771875
-4.933753
-10.05364
-8.776277
-8.610344
-8.401091
-8.500535
-8.519038
-8.929154
-5.052505
-10.24005
-2.260045
-9.033756
-4.946371
-10.15618
-8.641085
-8.634098
-8.73526
-8.534656
-8.793734
-3.497277
-3.412567
-8.694186
-9.772183
-9.57967
-10.10012
-8.989973
-9.711844
-10.15925
-9.048307
-10.07776
-9.884593
-10.52815
-9.417455
-10.1397
-10.46495
-9.353576
-14.08592
-14.28941
-14.19973
-14.17589
-14.20375
-15.19081
-13.70283
-13.78952
-14.11771
-14.05663
-14.08521
-14.17061
-13.97065
-13.29098
-13.31437
-13.05927
-14.16588
-12.99916
-13.37694
-14.09329
-13.46846
-13.64411
-13.73241
-13.37369
-13.49772
-13.84264
-13.58312
-13.76016
-13.7277
-14.07562
-13.98561
-13.81819
-13.49304
-13.51318
-13.11887
-14.19143
-13.17859
-13.40582
-14.27212
-13.69819
-13.87069
-13.95633
-13.61168
-14.0037
-15.0108
-13.67396
-13.58999
-14.08932
-13.83007
-13.84617
-13.94516
-13.74164
-13.85849
-14.05734
-13.94241
-13.97402
-14.48285
-13.47659
-14.22301
-14.39247
-14.13427
-14.54325
-14.62835
-14.02257
-13.44682
-14.27682
-14.36309
-14.10559
-12.61317
-12.69653
-9.751202
-10.46126
-10.54782
-10.76165
-11.5361
-12.53276
-10.67143
-12.44185
-12.32534
-10.5544
-11.50636
-10.64174
-12.41228
-12.81373
-12.7252
-12.54501
-13.25195
-12.47242
-12.39114
-12.63316
-13.1693
-12.51511
-12.28234
-13.05994
-12.36412
-13.14207
-12.42271
-12.7502
-13.27997
-12.49999
-13.36568
-12.58465
-12.66238
-12.77989
-13.48477
-12.70323
-13.39489
-12.61373
-12.87039
-14.51547
-14.4344
-14.04798
-13.21249
-13.80879
-14.13635
-13.89111
-13.99563
-14.24846
-13.24213
-14.16466
-13.91723
-13.33047
-13.52838
-13.84985
-15.53406
-14.26934
-14.6195
-13.9138
-14.20514
-14.52059
-14.04265
-15.77743
-14.33382
-14.65259
-13.97839
-14.39798
-14.7544
-14.3011
-14.32017
-14.20662
-14.41507
-14.48066
-15.46636
-14.16424
-14.06633
-14.57927
-14.33328
-14.5466
-14.44747
-14.43177
-14.00002
-14.02317
-14.68602
-13.61388
-13.67709
-13.90096
-14.79727
-14.23945
-14.59863
-14.50201
-14.32972
-14.20703
-14.36592
-14.10738
-14.46817
-13.94356
-14.10639
-13.84903
-14.20109
-13.77045
-13.79042
-14.65034
-13.5502
-13.48665
-13.86819
-14.54748
-13.97571
-14.33242
-14.23338
-14.07425
-14.71153
-15.71493
-14.19689
-14.29761
-14.61243
-14.59879
-14.80004
-14.7142
-14.69521
-14.56567
-14.58024
-14.46501
-14.68153
-14.51379
-14.25356
-13.6917
-14.60901
-14.34806
-15.00772
-14.90709
-14.48059
-13.72338
-14.74072
-14.64147
-14.38042
-13.06945
-12.97025
-10.02447
-10.91929
-10.82263
-10.79225
-11.75129
-12.56377
-10.88565
-12.65894
-12.79051
-11.01347
-11.78305
-10.91716
-12.69138
-12.84415
-12.93811
-13.25049
-12.99327
-13.77323
-13.09614
-13.15443
-13.87469
-13.28208
-13.23352
-14.01128
-13.13057
-13.90889
-13.37442
-13.02613
-12.95953
-13.73992
-13.64168
-12.86032
-13.12231
-12.99452
-13.51546
-12.73386
-12.90104
-13.60959
-12.82816
-15.04183
-15.14652
-15.00633
-13.98081
-14.75654
-14.90939
-14.65482
-14.51473
-14.77419
-13.94891
-14.87588
-14.61975
-14.04005
-13.80591
-12.35659
-12.56179
-12.40547
-12.94194
-12.65235
-12.46821
-12.29403
-12.41875
-12.97209
-12.77452
-12.59241
-12.6828
-12.53051
-12.48058
-12.63569
-12.54651
-13.41756
-12.9339
-12.84841
-12.7401
-12.53515
-12.29299
-12.40667
-12.62357
-12.50001
-12.65436
-12.76818
-12.62067
-12.73958
-12.35439
-12.65293
-12.85328
-12.53034
-12.4265
-12.51673
-12.29585
-12.28602
-12.66763
-12.3944
-12.19003
-12.25033
6.497439
6.884693
-12.15508
-12.15204
-7.262529
-10.56041
-11.44338
-11.37925
-10.42886
-12.25265
-12.28356
6.754727
6.88335
-12.38311
-12.26287
-12.64013
-12.06577
-12.1581
-12.16539
-12.66555
-12.75574
-12.99957
-12.97782
-12.59892
-12.86327
-12.88687
-12.77161
-13.09041
-13.61132
-12.96278
-13.04998
-12.96982
-12.65068
-12.53785
-12.76886
-12.85692
-12.74127
-12.88203
-12.87761
-12.78605
-12.52343
-12.31808
-12.87087
-12.4131
-12.42701
-12.54511
6.499323
6.626079
-12.63906
-12.38314
-7.47393
-10.57898
-11.50815
-11.57272
-10.69744
-12.28584
-12.51328
6.748158
6.635836
-12.41611
-12.55511
-12.90118
-12.53789
-12.44455
-12.64884
-12.16802
-12.53161
-12.34223
-12.73797
-12.23126
-12.44165
-12.27844
-12.10483
-12.70979
-12.31935
-12.1502
-12.41129
-12.21423
-12.04239
-12.66429
-13.21899
-13.02323
-12.8364
-12.9292
-12.77601
-12.72486
-12.60335
-13.18759
-12.80527
-12.65396
-12.54211
-12.89814
-12.71517
-13.15873
-13.25417
-14.12916
-13.45726
-13.55668
-13.50962
-13.48986
-13.09308
-13.36087
-13.39324
-13.26928
-13.60891
-13.47605
-13.14373
-13.26277
-13.03126
-13.36095
-13.37643
-13.238
-13.38064
-13.28596
-13.00534
-12.81013