/*--------------------------------*- C++ -*----------------------------------*\
| =========                 |                                                 |
| \\      /  F ield         | OpenFOAM: The Open Source CFD Toolbox           |
|  \\    /   O peration     | Version:  v1706                                 |
|   \\  /    A nd           | Web:      www.OpenFOAM.com                      |
|    \\/     M anipulation  |                                                 |
\*---------------------------------------------------------------------------*/
FoamFile
{
    version     2.0;
    format      ascii;
    class       volScalarField;
    location    "440";
    object      p_rgh;
}
// * * * * * * * * * * * * * * * * * * * * * * * * * * * * * * * * * * * * * //

dimensions      [0 2 -2 0 0 0 0];


internalField   nonuniform List<scalar> 
32305
(
1.518766
1.289887
0.789485
0.245968
-0.2879874
-0.7917741
-1.250921
-1.657808
-2.008668
-2.303255
-2.543763
-2.734025
-2.878765
-2.983038
-3.051819
-3.089713
-3.100836
-3.088563
-3.054806
-2.999504
-2.921666
-2.81846
-2.683725
-2.508111
-2.278471
-1.97747
-1.583943
-1.074592
-0.429077
0.364079
1.300921
2.293002
3.049791
3.490823
1.586926
1.260681
0.7667221
0.2160543
-0.319537
-0.8252225
-1.28514
-1.691856
-2.041605
-2.334399
-2.572698
-2.760595
-2.903025
-3.005201
-3.072212
-3.108805
-3.119352
-3.107668
-3.075374
-3.022816
-2.950149
-2.855183
-2.732583
-2.573943
-2.367385
-2.097118
-1.743585
-1.28495
-0.7013241
0.01733132
0.860671
1.777435
2.600552
2.923856
1.368795
0.9473022
0.5084506
-0.01636374
-0.5246037
-1.007113
-1.444749
-1.830681
-2.161046
-2.436028
-2.658165
-2.831633
-2.961352
-3.052487
-3.110038
-3.138685
-3.142837
-3.126469
-3.091063
-3.038158
-2.969114
-2.881988
-2.772255
-2.632337
-2.451361
-2.214699
-1.903605
-1.495893
-0.9692828
-0.3105901
0.4638445
1.292456
2.019598
2.258891
0.8761737
0.507624
0.1499617
-0.3267285
-0.7934997
-1.242759
-1.649909
-2.008575
-2.314306
-2.567221
-2.769758
-2.926022
-3.040845
-3.119227
-3.166007
-3.185792
-3.183004
-3.161258
-3.122884
-3.071383
-3.009073
-2.934373
-2.843741
-2.730893
-2.586522
-2.397637
-2.146835
-1.811681
-1.367168
-0.7953754
-0.1137587
0.6101423
1.207739
1.385859
0.3312365
0.02986018
-0.2656713
-0.6855373
-1.101339
-1.509935
-1.879861
-2.20506
-2.480603
-2.706668
-2.885616
-3.021447
-3.118765
-3.182253
-3.216404
-3.225591
-3.213872
-3.183073
-3.138991
-3.087633
-3.029729
-2.964719
-2.890097
-2.801041
-2.690079
-2.546452
-2.354915
-2.09365
-1.735848
-1.257982
-0.6786232
-0.05973635
0.4312358
0.5819415
-0.1982923
-0.4438739
-0.6900598
-1.053824
-1.414562
-1.776818
-2.105936
-2.395099
-2.638762
-2.837208
-2.992627
-3.108763
-3.189815
-3.239982
-3.26328
-3.26362
-3.243417
-3.206045
-3.159149
-3.10831
-3.05438
-2.997513
-2.936125
-2.866856
-2.78424
-2.680134
-2.542368
-2.351081
-2.079496
-1.698131
-1.224063
-0.6967042
-0.2896024
-0.1487176
-0.6833786
-0.8819355
-1.087588
-1.399687
-1.709289
-2.024606
-2.312247
-2.565627
-2.778023
-2.949782
-3.082874
-3.180646
-3.246723
-3.284702
-3.298116
-3.289894
-3.260958
-3.217838
-3.169396
-3.118656
-3.067511
-3.016393
-2.964358
-2.909147
-2.847052
-2.772456
-2.676789
-2.54373
-2.350383
-2.061488
-1.685627
-1.235687
-0.8970996
-0.759461
-1.102464
-1.262521
-1.435482
-1.702635
-1.96752
-2.240502
-2.48942
-2.709663
-2.893898
-3.042137
-3.15607
-3.238578
-3.292617
-3.321193
-3.327227
-3.310114
-3.274227
-3.227974
-3.177317
-3.126184
-3.076682
-3.02927
-2.983253
-2.936995
-2.887978
-2.832424
-2.764829
-2.673046
-2.542208
-2.331446
-2.039901
-1.653491
-1.370012
-1.232006
-1.444507
-1.573808
-1.720922
-1.950577
-2.17846
-2.415671
-2.631892
-2.823665
-2.984096
-3.113015
-3.211562
-3.282151
-3.327061
-3.348679
-3.348405
-3.325196
-3.283921
-3.233841
-3.18061
-3.128561
-3.079677
-3.034174
-2.991314
-2.9497
-2.907472
-2.862
-2.810056
-2.742904
-2.654671
-2.502518
-2.276632
-1.937983
-1.695511
-1.55333
-1.705741
-1.810718
-1.937923
-2.137552
-2.336484
-2.545474
-2.7361
-2.905794
-3.04771
-3.161964
-3.249294
-3.311588
-3.350654
-3.368623
-3.363096
-3.334585
-3.29006
-3.236946
-3.181613
-3.128457
-3.079238
-3.033919
-2.991782
-2.951368
-2.910836
-2.867817
-2.820328
-2.762959
-2.697994
-2.582679
-2.401119
-2.091404
-1.872167
-1.71768
-1.886673
-1.972546
-2.085061
-2.261717
-2.439375
-2.627694
-2.800011
-2.95418
-3.083363
-3.187606
-3.267556
-3.32479
-3.360739
-3.377184
-3.369801
-3.339697
-3.293859
-3.237936
-3.180366
-3.125908
-3.075957
-3.030079
-2.987217
-2.945636
-2.903351
-2.857934
-2.807724
-2.748711
-2.685133
-2.574674
-2.416785
-2.119325
-1.902506
-1.718843
-1.989746
-2.060112
-2.162239
-2.322468
-2.486177
-2.661396
-2.82288
-2.968339
-3.090731
-3.189922
-3.2663
-3.32143
-3.357004
-3.373195
-3.366166
-3.336496
-3.291266
-3.235012
-3.177882
-3.123918
-3.073342
-3.025699
-2.980385
-2.935709
-2.889575
-2.839436
-2.783063
-2.715565
-2.638574
-2.509554
-2.338198
-2.013051
-1.772564
-1.534761
-2.0225
-2.0806
-2.175567
-2.324668
-2.480327
-2.648584
-2.805433
-2.947867
-3.068507
-3.166798
-3.24291
-3.298555
-3.336749
-3.352644
-3.345619
-3.32054
-3.280142
-3.229466
-3.179926
-3.130427
-3.078746
-3.026854
-2.976773
-2.927057
-2.875334
-2.818602
-2.75358
-2.674293
-2.575619
-2.408828
-2.175467
-1.764048
-1.455745
-1.126258
-1.99356
-2.042108
-2.13231
-2.273367
-2.424947
-2.590256
-2.746884
-2.890528
-3.013481
-3.114311
-3.192753
-3.250919
-3.291283
-3.310438
-3.307774
-3.292076
-3.264187
-3.229753
-3.201303
-3.161371
-3.102849
-3.03766
-2.976029
-2.917668
-2.8589
-2.795491
-2.721685
-2.627528
-2.493974
-2.262859
-1.917212
-1.354307
-0.9197574
-0.443048
-1.908342
-1.949144
-2.036371
-2.17204
-2.323026
-2.489297
-2.649913
-2.798839
-2.9277
-3.033888
-3.116971
-3.180025
-3.22163
-3.243138
-3.249851
-3.25075
-3.247691
-3.250621
-3.270253
-3.247912
-3.170556
-3.081298
-3.006171
-2.9385
-2.871453
-2.799677
-2.712545
-2.590144
-2.395645
-2.052911
-1.52362
-0.7369963
-0.1144462
0.5786094
-1.772674
-1.807164
-1.892572
-2.024946
-2.178261
-2.349289
-2.517961
-2.675875
-2.813449
-2.92717
-3.016124
-3.083216
-3.126833
-3.150889
-3.169224
-3.194482
-3.23793
-3.324722
-3.448724
-3.441733
-3.281364
-3.1071
-2.996173
-2.921841
-2.854455
-2.779289
-2.680716
-2.522337
-2.235083
-1.715504
-0.9314601
0.137529
1.008177
2.0037
-1.593278
-1.623136
-1.706985
-1.837271
-1.995089
-2.174675
-2.355187
-2.525203
-2.674179
-2.796983
-2.892048
-2.960554
-3.004335
-3.028879
-3.055715
-3.108421
-3.223765
-3.427492
-3.804628
-3.866252
-3.531926
-3.263884
-3.106416
-2.991353
-2.912084
-2.839456
-2.713531
-2.460347
-1.993055
-1.216188
-0.1255278
1.254456
2.434372
3.827326
-1.378501
-1.405264
-1.486135
-1.614122
-1.778149
-1.970465
-2.166439
-2.352738
-2.516229
-2.649707
-2.751236
-2.817702
-2.853776
-2.871379
-2.896805
-2.97672
-3.207931
-3.571488
-4.188102
-4.568523
-3.780136
-2.921867
-2.941745
-2.958753
-2.886717
-2.74342
-2.51711
-2.130907
-1.482456
-0.4856168
0.8374205
2.43848
3.895094
5.619017
-1.138539
-1.165
-1.239172
-1.362547
-1.532265
-1.740154
-1.955975
-2.16322
-2.344254
-2.489356
-2.594557
-2.656437
-2.676974
-2.667996
-2.653345
-2.681564
-2.90298
-3.720728
-5.822779
-6.499633
-3.781995
-3.712359
-2.955043
-3.029427
-2.96066
-2.749418
-2.436323
-1.924013
-1.132523
-0.02397036
1.337998
2.891811
4.380656
6.2716
-0.8915832
-0.9104054
-0.9686304
-1.080737
-1.255949
-1.492862
-1.737526
-1.972904
-2.175227
-2.333102
-2.440619
-2.493146
-2.490131
-2.434132
-2.331018
-2.187303
-2.039233
-2.312192
-4.651614
-1.341143
-4.008634
-2.417358
-2.885164
-2.980336
-2.814661
-2.522147
-2.005541
-1.182146
-0.04617502
1.326251
2.842933
4.14683
5.634363
-0.695915
-0.6906206
-0.7093677
-0.789261
-0.9562034
-1.218447
-1.499483
-1.774952
-2.00431
-2.177931
-2.290118
-2.335643
-2.312263
-2.218888
-2.054529
-1.813141
-1.514923
-1.329691
-0.8493241
-1.603338
-2.371872
-3.272118
-3.524772
-3.641011
-3.541872
-3.294336
-2.936763
-2.455809
-1.742538
-0.730036
0.5202921
1.992421
3.349642
4.602087
-0.4330679
-0.4764075
-0.4957525
-0.5589786
-0.6782519
-1.010303
-1.31199
-1.629182
-1.885036
-2.071935
-2.186672
-2.224568
-2.183754
-2.060869
-1.853798
-1.559568
-1.218246
-0.8189208
-0.7156238
-1.354634
-2.431633
-3.394589
-3.610882
-3.599839
-3.421877
-3.119558
-2.715956
-2.171258
-1.422433
-0.4560707
0.7026126
2.042037
3.285257
4.339088
-0.2388677
-0.2681379
-0.2596615
-0.2656599
-0.1926727
-0.7286437
-1.136121
-1.489871
-1.770141
-1.979085
-2.108926
-2.155213
-2.118441
-1.995421
-1.784562
-1.484207
-1.13148
-0.7134478
-0.6834291
-1.301464
-2.331262
-3.085834
-3.410489
-3.475765
-3.333584
-3.034332
-2.599186
-1.995102
-1.173382
-0.1150834
1.174301
2.612149
3.80011
5.087698
-4.734124
-5.311855
-6.197061
-4.188141
-4.734171
-5.312207
-6.197277
-5.288679
-3.193343
-4.805152
-3.720789
-5.289048
-3.193411
-4.796219
-6.912558
-4.972856
-5.823054
-6.912403
-4.959332
-4.835671
-5.196309
-6.499368
-4.835324
-5.201748
-4.572636
-1.642162
-0.90971
-2.312288
-4.563579
-1.642198
-0.9084572
-0.8611957
-1.729708
-4.64426
-0.8593197
-1.721919
4.205773
-1.695819
-4.622167
4.191602
-1.689478
-4.621523
-1.402961
-0.8946997
-1.035869
-0.8494229
-1.399554
-0.8947828
-1.035957
-0.2311167
-0.2419046
-0.2360462
-0.1655431
-0.2735336
-0.1701949
-0.1337459
-0.2638721
-0.1373015
0.05301188
-0.2690689
0.05216039
-10.45703
-5.8196
-6.850417
-6.556948
-6.869798
-6.553521
-10.50636
-4.629893
-1.541557
-1.534655
-4.22841
-5.332639
-5.369921
-4.089535
2.421189
-2.387013
-7.077226
-1.34336
2.419299
-2.386914
-7.077018
-2.323288
-1.471657
-2.03251
-1.600391
-2.323587
-1.471829
-2.032602
-0.4365208
-0.259722
-0.3289888
-0.4330502
-0.4364933
-0.2551366
-0.3286322
-0.3881608
-0.3478318
-0.2782169
-0.4764353
-0.3881904
-0.3478611
-0.27836
-0.4083755
-0.3380164
-0.260155
-0.4957997
-0.4084302
-0.3382439
-0.2603916
-0.4756058
-0.3253999
-0.244281
-0.5590347
-0.475652
-0.3256374
-0.2444444
-0.2049494
-0.223384
-0.7611145
-0.2391528
-0.2498315
-1.049867
-0.2503229
-1.094302
-0.7433379
-0.2538093
-0.2698483
-0.1953606
-0.3180701
-0.1942234
-0.3233924
-0.2492887
-0.1540888
-0.2624628
-0.1504481
-0.18977
-0.1477523
-0.1932285
-0.1510321
0.02363991
-0.2709089
-0.1256397
-0.09202412
-0.1241186
-0.09252275
0.01777219
-4.428221
-4.788187
-6.097508
-3.586652
-6.102897
-3.580593
-4.427319
-4.428368
-4.787393
-6.097185
-3.586685
-6.102795
-3.580586
-4.427652
-10.39172
-6.926727
-6.73961
-8.74331
-6.724102
-8.715408
-10.46349
-4.936978
-6.752571
-6.765693
-8.767347
-8.733179
-10.45692
-5.81971
-6.850602
-6.556758
-6.869813
-6.553416
-10.50135
-10.3916
-6.926682
-6.73961
-8.743338
-6.724069
-8.71541
-10.45769
-4.936389
-6.75111
-6.765535
-8.768917
-8.733231
-7.012216
-8.849807
-2.817948
-8.813831
-2.831996
-7.005328
-7.011814
-8.853512
-2.843859
-8.813937
-2.83287
-7.003311
-2.112876
-4.563518
-2.927661
-1.668674
-2.929212
-1.660178
-2.114672
-2.112932
-4.563126
-2.927981
-1.659599
-2.929341
-1.659335
-2.114822
-0.8627822
-1.29486
-0.620024
-1.28411
-0.6109907
-1.747408
-0.6369689
-0.6247356
-4.629549
-1.530361
-1.534159
-0.8623506
-1.284961
-0.6129542
-1.283199
-0.6103175
-1.746653
-0.6290979
-0.6239737
-2.168078
4.222225
-4.770172
-7.949614
-4.799962
-7.997824
-2.194438
-3.361616
-1.672053
-2.895711
-2.955
-3.36921
-4.227806
-5.369874
-5.37259
-4.082061
-2.166806
4.216655
-4.809715
-7.95082
-4.803083
-7.998322
-2.187735
-3.360892
-1.671416
-2.89415
-2.954615
-3.361667
-0.9784239
-1.398394
-0.7372522
-1.210696
-0.7299709
-1.211544
-0.98002
-0.9786267
-1.397706
-0.7334713
-1.211265
-0.7291958
-1.211787
-0.9804834
-0.5649259
-0.2312757
-0.2389348
-0.4327623
-0.239405
-0.4403452
-0.5547398
-0.7851928
-0.2405624
-0.2526073
-1.212844
-0.2517597
-1.158155
-0.8022359
-0.5782341
-0.2337057
-0.2433844
-0.454695
-0.2416394
-0.4499198
-0.5859095
-0.2376944
-0.163581
-0.2223031
-0.1985153
-0.2237986
-0.2026176
-0.2329176
-0.2584032
-0.2725067
-0.2003398
-0.330863
-0.1966353
-0.3291434
-0.2594125
-0.2416692
-0.16586
-0.2270816
-0.2062271
-0.2261294
-0.2061785
-0.2415821
-0.1485551
-0.1313513
-0.2254216
-0.0999763
-0.2285008
-0.1009664
-0.1460374
-0.1566823
-0.2645043
-0.1543017
-0.1961526
-0.1496034
-0.1961925
-0.1566083
-0.1508761
-0.1330648
-0.2291012
-0.1045496
-0.2302747
-0.1031057
-0.1510036
0.02186849
-0.272554
-0.129
-0.0960757
-0.1257391
-0.09441325
0.01394288
-4.320798
-5.924272
-4.685179
-4.568573
-4.320842
-5.92444
-4.685186
-6.823296
-6.487994
-6.007742
-8.474127
-6.006366
-8.455685
-6.810588
-3.985898
-4.83298
-2.1425
-3.781697
-3.985586
-4.834191
-2.142347
-4.642395
-2.720065
-2.700569
-0.9631534
-1.136115
-0.9529919
-1.329709
-0.963158
-1.136104
-0.9529557
-0.8955014
-0.8493162
-0.6768409
-0.8756677
-0.6692533
-0.8746372
-0.8958458
-1.593974
-2.03891
-1.409502
-2.031893
-1.401813
-2.110032
-2.097807
-4.895388
-4.79953
-6.00128
-4.011098
-5.997075
-4.00054
-4.888579
-4.894714
-4.792863
-5.998554
-4.009538
-5.994953
-3.999135
-4.887855
-4.953529
-6.690969
-6.714738
-4.944427
-6.688824
-6.71317
-6.641957
-5.197329
-5.503742
-5.999187
-5.500229
-5.990312
-6.637123
-6.822969
-6.487911
-6.007364
-8.4732
-6.006185
-8.455553
-6.808975
-6.641579
-5.199886
-5.502787
-6.023181
-5.500158
-5.992079
-6.635311
-2.838864
-4.574852
-3.73224
-2.675195
-2.653562
-3.743186
-2.845535
-1.633007
-0.89273
-1.458154
-1.292045
-1.455183
-1.291536
-1.631808
-2.837525
-4.568586
-3.730665
-2.665717
-3.74175
-2.646547
-2.844093
-1.632961
-0.8924552
-1.450387
-1.291952
-1.454451
-1.291477
-1.63175
-1.746839
-2.351373
-1.035479
-2.351081
-1.01702
-4.636787
-2.713454
-2.695341
-1.740652
-2.340791
-1.026635
-2.343347
-1.010169
-2.885641
-1.677411
-2.495732
-2.1764
-2.176626
-2.490163
-2.876833
-2.356505
-4.722463
-1.254986
-2.577415
-1.173886
-2.558058
-2.386702
-2.879631
-1.67223
-2.48554
-2.172024
-2.172765
-2.482536
-2.869216
-2.355422
-4.722116
-1.25243
-2.576795
-1.17277
-2.557764
-2.381191
-0.8956961
-0.8493406
-0.6736752
-0.8761448
-0.6685935
-0.8748436
-0.8962806
-7.520907
-8.173848
-8.423765
-10.47439
-8.174958
-8.429282
-7.520101
-7.522509
-10.47863
-8.163342
-8.438918
-8.174648
-8.431886
-7.525018
-4.640224
-2.689987
-2.698461
-2.616202
-1.539135
-2.608984
-2.599686
-1.538919
-2.60738
2.175053
-4.219548
2.175134
-5.354206
-3.446182
-3.537737
-3.570764
-5.358545
-3.5509
-4.207566
2.067996
2.169491
-1.593367
-2.038941
-1.410402
-2.031908
-1.402216
-2.110331
-2.098465
-4.9022
-4.796067
-5.993457
-3.990347
-4.904633
-5.9963
-3.993575
-4.90176
-4.790735
-5.993218
-3.990016
-4.904473
-5.994527
-3.992629
-8.474571
-8.040987
-10.41068
-8.045241
-8.471444
-8.205267
-7.813812
-8.7282
-7.818798
-8.212971
-8.202395
-7.816211
-8.725495
-7.818035
-8.196762
-8.475045
-10.41567
-8.062284
-8.047953
-8.461344
-8.647883
-8.655722
-4.950435
-6.707073
-6.713365
-6.801937
-6.76352
-8.297254
-8.293318
-6.800151
-8.285988
-6.792081
-6.764736
-8.291242
-6.797822
-8.667604
-8.657227
-8.745748
-8.743031
-7.520548
-8.173728
-8.423586
-10.47173
-7.519962
-8.174393
-8.4281
-7.522026
-10.4756
-8.162574
-8.437037
-8.173893
-8.430421
-7.524542
-8.473685
-8.040845
-10.40765
-8.471301
-8.04447
-8.204218
-7.81275
-8.727909
-7.817892
-8.211703
-8.201538
-7.816089
-8.725202
-8.196618
-7.817286
-8.473991
-10.41223
-8.061279
-8.047038
-8.460057
-8.647792
-8.654047
-4.94232
-6.706991
-6.711957
-6.797299
-6.762225
-8.294335
-6.79642
-8.291064
-8.285742
-6.791623
-6.763673
-6.794804
-8.28945
-8.664857
-8.655389
-8.74626
-8.743442
-8.149573
-7.52747
-7.383669
-7.010337
-7.528318
-7.377196
-8.144252
-8.829053
-7.756981
-7.755305
-8.082641
-2.823561
-7.292283
-7.298581
-8.10363
-7.752658
-8.82589
-7.754572
-8.081077
-7.306753
-2.824032
-7.301754
-8.07633
-8.151207
-7.007205
-7.526795
-7.350307
-7.528462
-7.372448
-8.165472
-8.148715
-7.527236
-7.383477
-7.009176
-8.144226
-7.52694
-7.375879
-8.830829
-7.75465
-7.75351
-8.080562
-2.838423
-7.290552
-7.297256
-8.100624
-7.75244
-8.827414
-7.753113
-8.079223
-7.306582
-2.837092
-8.076232
-7.300677
-8.150234
-7.005456
-7.524345
-7.348193
-7.526652
-7.370819
-8.164182
-2.832727
-4.572635
-3.756791
-2.643458
-2.651971
-3.752909
-2.830101
-2.467462
-2.404318
-1.665776
-1.951752
-2.396127
-1.950941
-2.461608
-2.473094
-1.950213
-2.388561
-1.664192
-2.393841
-1.950407
-2.475446
-2.831825
-4.567032
-3.756435
-2.643028
-3.751951
-2.829744
-2.645659
-2.46542
-2.39406
-1.65881
-1.949254
-1.948687
-2.388256
-2.459364
-2.471713
-1.949666
-2.38763
-1.658542
-2.474943
-1.948875
-2.387478
-0.5635684
-0.5594191
-0.5233299
-1.044668
-1.287727
-1.050487
-0.5400015
-0.5510414
-0.6553093
-0.6152683
-0.6575322
-0.5519218
-0.523155
-1.046606
-1.286875
-1.050002
-0.519568
-0.5501625
-0.6579438
-0.6141389
-0.6583175
-0.5474816
-0.5639955
-0.5658137
-1.748179
-2.348186
-1.011281
-2.35081
-1.014895
-0.9910766
-0.6293419
-0.9935767
-0.991769
-0.6279862
-0.9936201
-4.63519
-2.689673
-2.693732
-2.608705
-1.53106
-2.603413
-2.599348
-1.53168
-2.602369
-0.5555424
-0.5588638
-0.5146692
-1.037837
-1.280114
-1.04501
-0.52771
-0.543224
-0.6510359
-0.6096886
-0.6537039
-0.5416825
-0.5153888
-1.045922
-1.280692
-1.045572
-0.5190422
-0.5438564
-0.6570552
-0.6096283
-0.5465482
-0.655747
-0.5550418
-0.5533039
-1.743179
-2.347714
-1.010449
-2.343947
-1.009359
-0.9822046
-0.6230917
-0.9866094
-0.9909093
-0.6229237
-0.9879686
-3.035743
-4.091787
-3.052153
-3.364452
-4.095002
-3.049331
-3.0341
-2.886684
-1.6754
-2.487229
-2.176319
-2.176663
-2.489841
-2.88651
-3.072623
-3.074254
-3.072299
-3.070602
-3.036151
-3.365914
-4.104164
-3.036375
-4.095654
-3.043037
-3.037659
2.173491
-4.215285
2.164194
-5.379347
-3.478102
-3.559646
-3.573309
-5.378149
-3.568122
-4.202143
2.046119
2.155254
-3.030837
-4.09132
-3.051191
-3.359766
-3.033346
-4.087791
-3.046557
-2.881802
-1.671188
-2.486756
-2.175436
-2.174082
-2.483066
-2.885764
-3.065914
-3.065762
-3.066868
-3.069776
-3.030139
-3.360068
-4.092242
-3.031674
-4.087583
-3.038881
-3.030369
-4.650168
-4.041374
-4.030783
-4.997576
-4.804559
-5.380135
-4.309609
-5.383396
-4.298935
-4.990626
-4.993149
-4.795887
-5.373577
-4.304164
-5.377123
-4.293587
-4.986102
-4.967048
-5.762384
-5.760796
-4.954659
-5.753328
-5.752497
-3.573075
-4.579121
-4.18647
-3.721734
-3.711049
-4.192523
-3.582021
-3.566214
-4.570822
-4.181099
-3.710392
-4.187327
-3.700566
-3.575002
-0.5398485
-0.8626965
-0.8624766
-0.5948577
-0.5853213
-0.8600131
-0.5516704
-4.642951
-4.029237
-4.019645
-0.5325055
-0.8609571
-0.858397
-0.5920004
-0.8563547
-0.5827087
-0.5420878
-8.763276
-9.115663
-9.44376
-10.46118
-9.116956
-9.445981
-8.762211
-8.776732
-10.49962
-9.130004
-9.473583
-9.12985
-9.467597
-8.778933
-4.632747
-3.996558
-4.000158
-1.857343
-1.541517
-1.332231
-1.856349
-1.329504
-1.321278
-1.847828
-1.536575
-1.849906
-1.323017
-2.575549
-7.382253
-5.341973
-2.697069
-7.489765
-2.691709
-2.565836
-2.593325
-2.706269
-7.533841
-5.366478
-7.52386
-2.70284
-2.599755
-5.002447
-4.789965
-5.374081
-4.272479
-5.001579
-5.375531
-4.273984
-5.001224
-4.787603
-5.373536
-4.271971
-5.001167
-5.37387
-4.272422
-9.405521
-8.991227
-10.39623
-8.993603
-9.402934
-8.709009
-8.401483
-8.739417
-9.546192
-8.401197
-9.5269
-8.712613
-8.691456
-9.475054
-8.39129
-8.717696
-8.392206
-9.47938
-8.689527
-9.424506
-10.44248
-9.027102
-9.014336
-9.418879
-9.828385
-9.830851
-4.940788
-5.740219
-5.74313
-9.868675
-9.858904
-8.758468
-8.735383
-8.762868
-9.115532
-9.443832
-10.46003
-8.762085
-9.11652
-9.446383
-8.775579
-10.49527
-9.128426
-9.475205
-9.128291
-9.468875
-8.777804
-9.405013
-8.991154
-10.39492
-9.402883
-8.993106
-8.708084
-8.400304
-8.739284
-9.540912
-8.400028
-9.522156
-8.711665
-8.691157
-9.474897
-8.391172
-8.717539
-8.391838
-8.689499
-9.477964
-9.422906
-10.43752
-9.025582
-9.01284
-9.417237
-9.82856
-9.831819
-4.936828
-5.739881
-5.740686
-9.872516
-9.862016
-8.759571
-8.735564
-8.843956
-8.272935
-8.269131
-7.564211
-6.050627
-2.826089
-6.787585
-6.778758
-6.037015
-7.551087
-8.249295
-8.81637
-8.251297
-7.583118
-6.788426
-6.095928
-2.828208
-6.787396
-6.091467
-7.58454
-8.846961
-8.271748
-8.267889
-7.564448
-6.085099
-2.848231
-6.787055
-6.77825
-6.064581
-7.551473
-8.249239
-8.817033
-8.250839
-7.58315
-6.788351
-6.097305
-2.83424
-6.78715
-7.584555
-6.100794
-3.550031
-4.566082
-4.198697
-3.685668
-3.688672
-4.199561
-3.548677
-3.548028
-4.563351
-4.198173
-3.685186
-4.198035
-3.54797
-3.685277
-0.5382488
-0.8635269
-0.8547123
-0.5714389
-0.5761185
-0.8569657
-0.5352366
-0.9948209
-1.225293
-1.291584
-1.224402
-1.228898
-1.225298
-0.9993511
-0.9843785
-1.217242
-1.225784
-1.285136
-1.226888
-1.219055
-0.9831702
-4.630271
-3.996092
-3.996698
-1.845383
-1.530982
-1.321552
-1.845114
-1.319493
-1.32081
-1.847291
-1.533052
-1.846164
-1.319638
-0.5323471
-0.8623824
-0.8538683
-0.5708072
-0.8545144
-0.5343909
-0.5743669
-0.9845595
-1.216225
-1.281982
-1.213667
-1.22006
-1.215182
-0.9887687
-0.9814396
-1.21676
-1.224923
-1.282358
-1.224302
-0.9821878
-1.215622
2.783924
-1.83722
-5.109849
-2.171361
-1.838951
-5.088243
2.789799
-0.6758447
-2.74588
-4.78626
-1.327325
-1.328282
-2.7542
-0.6598367
-0.6910317
-1.33794
-2.776897
-4.789801
-1.332945
-2.767298
-0.700914
2.766698
-2.179064
-1.85934
-4.958677
-1.845267
-5.036577
2.728507
-2.606551
-7.426715
-5.376448
-2.731708
-7.526382
-2.724379
-2.601505
-2.603594
-2.708982
-7.534144
-5.37478
-2.600097
-7.535312
-2.710964
2.780353
-1.838659
-5.109222
-2.167681
2.788589
-1.843351
-5.08626
-0.6960813
-2.771202
-4.813014
-1.353562
-2.774691
-1.349297
-0.6849855
-0.7037605
-1.342431
-2.781356
-4.810927
-2.780325
-0.7052464
-1.346113
2.760826
-2.17341
-1.868747
-4.954566
-1.852557
-5.033445
2.721319
-0.9512775
-0.9113502
-0.7346523
-0.8303265
-0.8277676
-0.9098021
-0.9522144
-0.9497684
-0.8223024
-0.9061813
-0.7318621
-0.8243971
-0.9077519
-0.9484646
-0.9502946
-0.9076932
-0.7312667
-0.8290971
-0.9065235
-0.8265937
-0.9511888
-0.9491279
-0.8220003
-0.9054233
-0.7295921
-0.9055552
-0.9482
-0.8236206
-7.553522
-8.466447
-7.672999
-7.5515
-7.679853
-7.162845
-7.161914
-7.679535
-7.548572
-8.462789
-7.549788
-7.680054
-7.16359
-7.163766
-4.648831
-4.013302
-4.026216
-3.746464
-2.711907
-3.741797
-3.72701
-2.708844
-3.738306
-5.003817
-4.802679
-5.382808
-4.284047
-5.384267
-4.290096
-5.005471
-4.999776
-4.794873
-5.378038
-4.279736
-5.378649
-4.285163
-5.001974
-7.910846
-7.923807
-4.963803
-5.753001
-5.759611
-5.872157
-6.713585
-7.629166
-5.858031
-7.628264
-7.619022
-5.848037
-6.715037
-5.855489
-7.626188
-7.935486
-7.928031
-7.903407
-7.91417
-4.952118
-5.747066
-5.751803
-5.865311
-6.711561
-7.633649
-5.851734
-7.63184
-7.621343
-5.843532
-6.713107
-5.849585
-7.629442
-7.9239
-7.917709
-6.031968
-5.986957
-6.876909
-6.862921
-6.018744
-7.983295
-7.94994
-6.854233
-6.008572
-5.986292
-6.856518
-6.010787
-8.00269
-8.011034
-7.552227
-8.465503
-7.670633
-7.550338
-7.677969
-7.161526
-7.16043
-7.679333
-7.548291
-8.461966
-7.548988
-7.678644
-7.162695
-7.163457
-6.04354
-6.003024
-6.873989
-6.860537
-6.028631
-7.983689
-7.949904
-6.853749
-6.010914
-5.99884
-6.855029
-6.01705
-8.002816
-8.011219
-3.56438
-4.578349
-3.699115
-4.200327
-3.708137
-4.197962
-3.559126
-3.298497
-3.495425
-2.664075
-2.74481
-3.49146
-2.740262
-3.291984
-3.304464
-2.733039
-3.482358
-2.661619
-3.48965
-3.306807
-2.735872
-1.11529
-1.458358
-1.671506
-1.676512
-1.109194
-1.372458
-1.371407
-1.683287
-1.100172
-1.457709
-1.681235
-1.103428
-1.372429
-1.372474
-3.558076
-4.570476
-4.196151
-3.69125
-4.193207
-3.698191
-3.553602
-3.29222
-3.483666
-2.65502
-2.737866
-3.480615
-2.733481
-3.285557
-3.298679
-2.727552
-3.474214
-2.65294
-3.479359
-3.301719
-2.729631
-1.111437
-1.452313
-1.668997
-1.674259
-1.105773
-1.370692
-1.369472
-1.682747
-1.099408
-1.452792
-1.679737
-1.101155
-1.37124
-1.372039
-1.60355
-1.117894
-1.604457
-1.118862
-1.626245
-2.134048
-2.351851
-2.152806
-1.637534
-1.625156
-2.155461
-2.351732
-2.154489
-1.623605
-1.602707
-1.128323
-1.119604
-1.599361
-4.64189
-4.005082
-4.015707
-3.732434
-2.705409
-3.728965
-3.717546
-2.702545
-3.726198
-1.591088
-1.108592
-1.594561
-1.107143
-1.614392
-2.123503
-2.341843
-2.142839
-1.624957
-1.613862
-2.147775
-2.342166
-2.144982
-1.61458
-1.58962
-1.115248
-1.107329
-1.585417
-2.382556
-2.182693
-2.491807
-2.802824
-2.180709
-2.80396
-2.379968
-2.384792
-2.805072
-2.178176
-2.491332
-2.179131
-2.386253
-2.804371
-2.373642
-2.172717
-2.482176
-2.792469
-2.171025
-2.794214
-2.370812
-2.376602
-2.797495
-2.170396
-2.482012
-2.170267
-2.379125
-2.795062
-8.765286
-10.46379
-9.122146
-9.453601
-8.767897
-9.119235
-9.447354
-8.774111
-10.49429
-9.125385
-9.455874
-8.771176
-9.128283
-9.465139
-4.634218
-4.010038
-4.001999
-3.71063
-2.692291
-3.714354
-3.723948
-2.693471
-3.716184
-2.010236
-2.615922
-2.010091
-1.541444
-1.854189
-1.326384
-1.855951
-1.328774
-2.614535
-2.007173
-2.009562
-2.000016
-2.601908
-2.002248
-1.537107
-1.853287
-1.32573
-1.850765
-1.323643
-2.602989
-2.006152
-2.003173
-4.255001
0.8939191
0.8857039
-4.252278
-4.366709
-5.610255
2.176267
-0.6390548
-0.633917
-5.609404
-4.36743
-4.062547
-3.961971
-3.96239
-4.06219
-4.366004
-0.6251497
2.176551
-5.600586
-0.6329207
-4.361667
-5.606686
-4.062423
-3.959847
-4.0611
-3.962139
-4.255346
0.8798657
0.8852862
-4.255153
-2.144971
-0.7747176
-2.143902
-0.7566065
-2.613081
-5.992203
-6.771963
-2.60252
-2.575925
-5.348674
-7.51055
-2.691301
-2.584076
-7.491411
-2.689712
-2.084745
-1.011668
-3.487971
-0.7531937
-0.7869577
-0.9646034
-2.097921
-2.61353
-6.789256
-2.622262
-6.776596
-2.084043
-0.8100296
-0.9270828
-3.518596
-2.084238
-0.7917983
-0.9367108
-2.14583
-0.6616184
-0.7540938
-2.162052
-2.150577
-0.775549
-0.7858762
-2.144237
-2.091382
-0.9330334
-3.566392
-0.8277589
-0.8220709
-0.9303305
-2.097131
-2.631654
-6.812762
-6.817947
-2.638134
-2.592827
-5.362623
-7.512289
-2.694747
-2.584654
-7.521937
-2.698875
-2.631154
-6.792371
-2.622855
-6.819101
-2.090956
-0.8116614
-3.55995
-0.9259877
-0.8210004
-2.084594
-0.9276102
-2.151006
-0.7925583
-0.7864595
-2.15683
-4.244938
0.8944717
-4.250739
0.9014194
-4.342012
-5.458094
2.123413
-0.5622663
-0.6220207
-5.526262
-4.31874
-4.059293
-3.942317
-3.948585
-4.061177
-4.347549
-0.6240425
-5.58901
2.15533
-4.359337
-0.6200472
-5.566957
-4.059069
-3.958246
-4.060422
-3.951721
-4.242923
0.7074689
0.9015776
-4.236556
-5.003671
-4.792643
-5.380389
-4.279637
-5.004961
-5.37773
-4.276317
-5.001636
-4.788761
-5.376595
-4.276155
-5.002166
-5.374981
-4.273753
-9.257876
-9.367147
-9.370127
-9.255264
-9.407146
-10.39895
-9.000801
-8.994888
-9.413768
-9.259477
-9.379162
-9.371913
-9.266179
-8.707144
-8.736528
-8.398234
-9.499066
-8.400043
-8.700239
-9.519045
-8.915763
-9.185417
-9.180603
-8.91414
-8.914042
-9.167001
-8.906587
-9.177391
-8.89661
-9.152844
-9.155491
-8.894464
-8.692682
-8.719264
-8.395997
-9.4938
-8.393895
-8.6982
-9.482033
-8.898007
-9.164148
-9.157113
-8.904224
-9.423467
-10.43499
-9.002863
-9.011638
-9.416308
-9.280259
-9.387985
-9.393875
-9.284925
-9.277735
-9.382233
-9.268862
-9.391782
-9.563296
-8.649898
-9.303901
-9.565502
-9.307734
-9.840075
-9.832563
-9.319563
-8.651046
-9.573378
-9.567019
-9.309935
-7.906975
-7.897659
-4.942716
-5.750845
-5.744612
-5.837051
-6.708691
-7.607671
-5.83953
-7.609477
-7.616633
-5.846184
-6.709862
-5.84077
-7.610845
-7.891327
-7.895457
-7.963752
-8.579114
-7.797463
-7.809022
-7.959089
-8.589235
-7.964861
-7.824235
-8.603864
-7.813019
-8.592985
-7.965532
-7.952456
-8.576244
-7.794111
-8.569274
-7.786093
-7.957383
-7.951252
-8.564903
-7.781134
-8.567629
-7.784281
-7.949153
-9.843216
-9.854907
-9.592195
-8.664048
-9.353386
-9.587542
-9.342709
-9.323513
-9.575936
-8.662717
-9.584922
-9.337879
-8.754913
-8.736902
-8.764645
-10.46226
-9.121142
-9.454352
-8.767089
-9.118509
-9.447844
-8.773014
-10.49025
-9.124136
-9.456707
-8.770196
-9.126846
-9.466295
-9.257136
-9.367073
-9.255166
-9.369477
-9.406483
-10.39719
-8.999753
-8.994237
-9.412683
-9.258516
-9.377701
-9.37106
-9.264597
-8.706262
-8.736331
-9.495553
-8.397272
-8.398957
-8.699524
-9.514566
-8.915152
-9.183442
-9.178752
-8.91349
-8.913464
-9.165663
-8.906117
-9.175653
-8.896412
-9.152774
-8.894448
-9.154966
-8.692289
-8.719065
-9.490666
-8.395204
-8.393303
-8.697566
-9.480169
-8.897741
-9.162973
-9.156426
-8.903809
-9.421941
-10.43043
-9.001689
-9.010203
-9.41509
-9.277867
-9.385469
-9.391563
-9.282421
-9.275467
-9.380574
-9.26708
-9.389613
-9.563418
-9.303643
-8.649153
-9.566172
-9.305664
-9.84197
-9.833764
-9.315031
-8.650069
-9.574683
-9.567854
-9.307236
-7.900373
-7.893652
-4.937691
-5.745588
-5.741456
-5.836799
-6.707999
-7.60783
-5.837658
-7.610453
-7.618688
-5.842188
-6.708976
-5.838356
-7.61208
-7.89091
-7.892366
-7.959721
-7.793752
-8.576073
-7.804374
-7.955913
-8.585297
-7.960653
-7.819057
-8.599267
-7.808124
-8.5888
-7.961075
-7.950735
-7.790812
-8.573567
-8.567703
-7.784068
-7.954568
-7.949931
-8.564777
-7.780919
-7.948969
-8.566437
-7.782725
-9.845331
-9.857784
-9.594676
-8.661487
-9.345347
-9.589636
-9.335529
-9.318379
-9.577391
-8.660269
-9.58686
-9.331176
-8.755841
-8.737125
-7.571469
-7.855134
-7.682431
-8.146065
-7.853007
-7.683374
-7.570748
-7.571831
-8.145368
-7.851633
-7.683999
-7.852573
-7.68388
-7.571907
-7.961471
-7.965082
-8.840358
-8.259944
-8.267218
-8.193835
-8.076894
-7.756395
-7.947962
-8.072354
-7.948294
-8.200941
-8.191023
-7.945181
-8.06461
-7.75589
-8.070753
-8.183497
-7.947671
-7.969018
-7.966256
-7.713118
-7.608998
-8.090692
-7.718829
-7.605878
-7.700469
10.71021
11.20699
-7.698242
-7.567605
-2.824727
-6.072436
-6.779871
-6.7777
-6.044343
-7.575352
-7.702762
11.19394
11.21296
-7.709526
-7.711135
-8.094099
-7.605622
-7.604957
-7.706733
-7.960446
-7.957994
-8.175531
-8.055748
-7.753107
-7.940654
-8.057421
-7.941628
-8.173879
-8.818089
-8.257926
-8.252484
-8.176634
-7.944294
-7.753835
-8.06298
-8.058368
-7.942195
-8.181399
-7.956383
-7.957434
-7.724225
-7.610127
-8.077927
-7.612416
-7.720539
-7.717044
11.17238
11.18956
-7.718392
-7.582113
-2.827011
-6.076197
-6.782753
-6.78546
-6.091007
-7.577598
-7.71611
11.19468
11.19201
-7.711632
-7.725036
-8.077403
-7.613634
-7.612976
-7.726124
-7.56849
-7.855883
-7.681066
-8.158334
-7.569846
-7.858738
-7.679193
-7.567236
-8.161102
-7.860391
-7.674868
-7.859366
-7.676925
-7.56679
-7.570492
-8.14557
-7.853658
-7.681231
-7.852119
-7.682501