/*--------------------------------*- C++ -*----------------------------------*\
| =========                 |                                                 |
| \\      /  F ield         | OpenFOAM: The Open Source CFD Toolbox           |
|  \\    /   O peration     | Version:  v1706                                 |
|   \\  /    A nd           | Web:      www.OpenFOAM.com                      |
|    \\/     M anipulation  |                                                 |
\*---------------------------------------------------------------------------*/
FoamFile
{
    version     2.0;
    format      ascii;
    class       surfaceScalarField;
    location    "440";
    object      phi;
}
// * * * * * * * * * * * * * * * * * * * * * * * * * * * * * * * * * * * * * //

dimensions      [0 3 -1 0 0 0 0];
oriented        oriented;


internalField   nonuniform List<scalar> 
96030
(
-0.01006722
0.01006722
-0.03527714
0.02520992
-0.05476122
0.01948408
-0.06972977
0.01496855
-0.08166997
0.0119402
-0.09149936
0.009829385
-0.09967003
0.008170676
-0.1064566
0.006786565
-0.112059
0.005602353
-0.1166426
0.004583652
-0.1203493
0.003706732
-0.1233054
0.002956115
-0.125619
0.002313574
-0.127384
0.001764959
-0.1286797
0.001295709
-0.1295712
0.0008915047
-0.130112
0.0005407869
-0.1303427
0.000230737
-0.1302879
-5.485727e-05
-0.1299624
-0.0003254253
-0.1293641
-0.0005983779
-0.1284594
-0.0009046902
-0.1271781
-0.001281258
-0.125406
-0.00177212
-0.1229743
-0.002431717
-0.1196445
-0.003329766
-0.1150887
-0.00455578
-0.1088615
-0.006227192
-0.1003538
-0.008507697
-0.08869381
-0.01166003
-0.07249576
-0.01619805
-0.04955266
-0.0229431
-0.01833046
-0.03122219
-0.01833046
-0.02058789
0.0306551
-0.03603408
0.04065611
-0.0520311
0.0354811
-0.06678162
0.02971907
-0.0795559
0.02471448
-0.09033255
0.02060604
-0.0993154
0.01715352
-0.1067433
0.0142145
-0.1128322
0.01169119
-0.1177704
0.009521879
-0.1217251
0.007661389
-0.124839
0.006070051
-0.1272364
0.004710969
-0.1290208
0.003549325
-0.1302775
0.002552421
-0.1310786
0.001692656
-0.1314812
0.0009434074
-0.1315322
0.0002817347
-0.1312697
-0.0003173453
-0.1307177
-0.0008774846
-0.1298742
-0.001441838
-0.1287024
-0.002076499
-0.1271291
-0.002854622
-0.1250311
-0.003870124
-0.1222243
-0.005238421
-0.1184462
-0.007107928
-0.1133303
-0.009671678
-0.1063794
-0.0131781
-0.09694964
-0.01793743
-0.08431288
-0.0242968
-0.06796909
-0.03254184
-0.04833463
-0.04257756
-0.02797348
-0.05158334
-0.04630395
-0.01703959
0.0476947
-0.02999649
0.05361301
-0.04324386
0.04872846
-0.05598804
0.04246326
-0.06719692
0.03592336
-0.07677317
0.03018228
-0.0847869
0.02516725
-0.09139592
0.02082352
-0.09677652
0.01707179
-0.1011004
0.01384578
-0.1045236
0.01108454
-0.1071826
0.008729064
-0.1091924
0.006720778
-0.1106483
0.00500518
-0.1116287
0.003532836
-0.1121973
0.002261246
-0.1124085
0.001154631
-0.1123077
0.0001809045
-0.1119448
-0.0006802156
-0.1113578
-0.00146445
-0.1105475
-0.002252148
-0.1094836
-0.003140382
-0.1080999
-0.004238389
-0.1062886
-0.005681348
-0.1038854
-0.007641695
-0.1006519
-0.01034144
-0.09625244
-0.01407108
-0.09022867
-0.01920188
-0.08200453
-0.02616156
-0.07096918
-0.03533215
-0.05672882
-0.0467822
-0.04026613
-0.05904024
-0.02287281
-0.06897666
-0.06917676
-0.01362985
0.06132455
-0.02557552
0.06555867
-0.03619767
0.05935062
-0.04648575
0.05275133
-0.05589084
0.04532845
-0.06392432
0.03821577
-0.07061761
0.03186055
-0.07607762
0.02628353
-0.08044465
0.02143882
-0.0838692
0.01727033
-0.08649424
0.01370959
-0.08844772
0.01068255
-0.08983913
0.008112189
-0.09075777
0.005923815
-0.0912768
0.00405187
-0.091458
0.002442442
-0.09135585
0.001052481
-0.09102186
-0.0001530792
-0.0905262
-0.001175879
-0.08991422
-0.002076431
-0.0891839
-0.002982466
-0.08831483
-0.004009455
-0.08725792
-0.005295297
-0.08592936
-0.007009907
-0.08419977
-0.009371288
-0.08187426
-0.01266695
-0.07866404
-0.01728131
-0.07415189
-0.02371403
-0.06778141
-0.03253204
-0.05891191
-0.04420165
-0.04755722
-0.05813689
-0.03424925
-0.07234821
-0.01795496
-0.08527095
-0.08713172
-0.01084056
0.07216511
-0.02115671
0.07587482
-0.03031606
0.06850998
-0.03828408
0.06071935
-0.04572949
0.05277385
-0.05223832
0.0447246
-0.05758451
0.03720673
-0.06184678
0.03054581
-0.06513991
0.02473195
-0.0675945
0.01972492
-0.06934052
0.01545561
-0.07049533
0.01183735
-0.07115915
0.00877601
-0.07141578
0.006180447
-0.07133652
0.003972605
-0.07098589
0.002091812
-0.07042833
0.0004949238
-0.06976892
-0.0008124949
-0.06908971
-0.001855088
-0.06840759
-0.002758551
-0.06773244
-0.003657612
-0.06705552
-0.004686375
-0.06634691
-0.006003908
-0.06555258
-0.007804238
-0.06458374
-0.01034013
-0.06329831
-0.01395237
-0.06146464
-0.01911498
-0.05870071
-0.02647796
-0.05443473
-0.03679802
-0.04819627
-0.05044011
-0.03985558
-0.06647758
-0.02845634
-0.08374745
-0.01432259
-0.0994047
-0.1014543
-0.008546204
0.08071131
-0.01706118
0.0843898
-0.02467436
0.07612315
-0.03124753
0.06729252
-0.03684819
0.05837452
-0.04185227
0.04972868
-0.04600004
0.04135449
-0.0492107
0.03375647
-0.0515819
0.02710315
-0.05322712
0.02137014
-0.05425765
0.01648615
-0.05477142
0.01235112
-0.0548485
0.00885309
-0.05455434
0.005886289
-0.05394449
0.003362755
-0.05307555
0.00122287
-0.05203876
-0.0005418662
-0.05096814
-0.001883112
-0.04994226
-0.002880975
-0.04899614
-0.003704667
-0.04816429
-0.004489464
-0.0474608
-0.005389865
-0.04688371
-0.006581
-0.04641515
-0.008272799
-0.04601826
-0.01073702
-0.04561905
-0.01435158
-0.04506158
-0.01967245
-0.04401091
-0.02752864
-0.04200075
-0.03880817
-0.0384775
-0.05396336
-0.03225557
-0.07269951
-0.02304478
-0.09295825
-0.0114577
-0.1109918
-0.112912
-0.006609786
0.0873211
-0.01337693
0.09115695
-0.01947441
0.08222063
-0.02473564
0.07255375
-0.02917714
0.06281602
-0.03279933
0.05335087
-0.03587327
0.04442843
-0.03824816
0.03613136
-0.03992628
0.02878127
-0.0410046
0.02244847
-0.04157389
0.01705543
-0.04170756
0.01248479
-0.04145831
0.008603844
-0.04086236
0.005290341
-0.03994765
0.002448038
-0.03874137
1.659788e-05
-0.0373721
-0.001911138
-0.03596019
-0.003295021
-0.03456621
-0.004274956
-0.03327703
-0.004993846
-0.03215234
-0.00561416
-0.03122566
-0.006316547
-0.03051649
-0.007290167
-0.03004108
-0.008748213
-0.02981971
-0.01095838
-0.02987044
-0.01430085
-0.03016297
-0.01937992
-0.03053001
-0.0271616
-0.03057561
-0.03876257
-0.02908577
-0.0554532
-0.0249778
-0.07680748
-0.01802889
-0.09990717
-0.009001428
-0.1200192
-0.1219134
-0.004935132
0.09225623
-0.01008904
0.09631086
-0.01476585
0.08689743
-0.01881187
0.07659977
-0.02221393
0.06621808
-0.02495793
0.05609487
-0.02706719
0.04653769
-0.02874221
0.03780639
-0.02990792
0.02994697
-0.03059971
0.02314025
-0.03088704
0.01734276
-0.03081884
0.0124166
-0.03042006
0.008205056
-0.02969403
0.004564319
-0.02862491
0.00137891
-0.02726379
-0.001344518
-0.0257096
-0.003465332
-0.02403932
-0.004965298
-0.02237902
-0.005935259
-0.0208488
-0.006524058
-0.01952126
-0.006941703
-0.01842843
-0.007409378
-0.01758581
-0.008132791
-0.01701226
-0.009321763
-0.01675008
-0.01122056
-0.0168812
-0.01416973
-0.01753418
-0.01872694
-0.01877285
-0.02592293
-0.02007907
-0.03745634
-0.02032869
-0.05520358
-0.01816846
-0.07896771
-0.01339406
-0.1046816
-0.006797567
-0.1266157
-0.128711
-0.003463874
0.0957201
-0.007151187
0.09999817
-0.01052285
0.0902691
-0.01345062
0.07952754
-0.01590937
0.06867682
-0.017877
0.0580625
-0.01936438
0.04802508
-0.02040294
0.03884495
-0.02113978
0.03068381
-0.02153464
0.02353511
-0.02161432
0.01742244
-0.0214069
0.01220919
-0.02091621
0.007714366
-0.0201218
0.003769908
-0.01896249
0.000219599
-0.0174685
-0.002838508
-0.01573492
-0.005198914
-0.0138735
-0.006826722
-0.01206284
-0.007745916
-0.01044776
-0.008139136
-0.009097396
-0.008292069
-0.00802546
-0.008481314
-0.007228235
-0.008930016
-0.0067085
-0.009841497
-0.00649673
-0.01143233
-0.006682581
-0.01398388
-0.007457535
-0.01795199
-0.008929248
-0.02445122
-0.01092966
-0.03545593
-0.01243383
-0.05369941
-0.01189802
-0.07950351
-0.0091102
-0.1074694
-0.004772276
-0.1309537
-0.1334833
-0.002157063
0.09787717
-0.004512521
0.1023536
-0.006686765
0.09244334
-0.008580127
0.08142091
-0.01016614
0.07026284
-0.01141901
0.05931537
-0.01233993
0.04894599
-0.01294276
0.03944778
-0.0132536
0.03099465
-0.01335837
0.02363988
-0.01322052
0.0172846
-0.01283931
0.01182797
-0.01219985
0.007074908
-0.01124809
0.002818145
-0.009927969
-0.001100521
-0.008259693
-0.004506784
-0.006330617
-0.007127989
-0.00431869
-0.008838649
-0.002463864
-0.009600742
-0.0009249154
-0.009678085
0.0002572873
-0.009474271
0.001103005
-0.009327032
0.001641519
-0.00946853
0.001885742
-0.01008572
0.001813758
-0.01136035
0.001361322
-0.01353144
0.000447249
-0.01703791
-0.00110811
-0.02289586
-0.003337859
-0.03322619
-0.005486421
-0.05155085
-0.006137044
-0.07885289
-0.005108554
-0.1084979
-0.002862732
-0.1331995
-0.136346
-0.0009829289
0.0988601
-0.00212214
0.1034928
-0.003190814
0.09351202
-0.004114803
0.08234489
-0.004871958
0.07101999
-0.005438145
0.05988156
-0.005809149
0.049317
-0.005981045
0.03961967
-0.005955028
0.03096863
-0.00573019
0.02341504
-0.005326243
0.01688065
-0.004694777
0.01119651
-0.003809057
0.006189188
-0.002557402
0.00156649
-0.0008981434
-0.00275978
0.001091403
-0.00649633
0.003302947
-0.009339533
0.005483429
-0.01101913
0.007309904
-0.01142722
0.008618023
-0.0109862
0.009435596
-0.01029184
0.009853359
-0.009744795
0.009934943
-0.009550113
0.009700662
-0.009851439
0.009143388
-0.01080307
0.008204735
-0.01259279
0.00685267
-0.01568585
0.005017803
-0.02106099
0.002772646
-0.03098103
0.0006499689
-0.04942817
-0.000720711
-0.07748221
-0.00124697
-0.1079716
-0.0009754802
-0.133471
-0.1373215
7.799644e-05
0.0987821
5.890985e-05
0.1035119
3.067635e-05
0.09354025
3.473628e-05
0.08234083
8.934101e-05
0.07096539
0.0002100365
0.05976086
0.0004001945
0.04912684
0.0006796272
0.03934024
0.001073541
0.03057472
0.001618226
0.02287036
0.002359856
0.01613902
0.003345385
0.01021098
0.004633687
0.004900887
0.006369417
-0.0001692408
0.008521893
-0.004912256
0.01095647
-0.008930908
0.01356018
-0.01194324
0.01599851
-0.01345746
0.01779057
-0.01321928
0.01875793
-0.01195357
0.01904127
-0.01057518
0.01884793
-0.009551451
0.01830079
-0.009002973
0.01743841
-0.008989056
0.01623866
-0.009603329
0.01467024
-0.01102436
0.0126867
-0.01370232
0.01035827
-0.01873255
0.008046606
-0.02866937
0.006237556
-0.04761912
0.004553916
-0.07579857
0.002709399
-0.1061271
0.001044455
-0.131806
-0.136277
0.001044686
0.09773741
0.002069978
0.1024866
0.003027393
0.09258283
0.003934506
0.08143372
0.004798809
0.07010109
0.0056218
0.05893787
0.006400974
0.04834766
0.007165452
0.03857576
0.007966505
0.02977367
0.008880483
0.02195638
0.01001847
0.01500104
0.0114291
0.008800345
0.01325571
0.003074274
0.01554977
-0.002463301
0.01823256
-0.007595041
0.02129004
-0.01198839
0.02454935
-0.01520255
0.02746602
-0.01637413
0.02925215
-0.01500541
0.02972793
-0.01242935
0.02926916
-0.01011641
0.02828006
-0.008562347
0.02695882
-0.00768174
0.02536085
-0.007391086
0.02345071
-0.007693182
0.02119592
-0.008769574
0.01858665
-0.01109305
0.01584507
-0.01599097
0.01361155
-0.02643585
0.01214277
-0.04615034
0.01024943
-0.07390523
0.007167848
-0.1030455
0.003391824
-0.12803
-0.1328852
0.001937099
0.09580031
0.003934223
0.1004895
0.005824429
0.09069263
0.007610989
0.07964716
0.009286254
0.06842582
0.01082787
0.05739626
0.01222293
0.0469526
0.01350196
0.03729673
0.01473534
0.02854029
0.01607833
0.02061339
0.01759891
0.01348045
0.01942264
0.006976611
0.02174295
0.0007539639
0.02459755
-0.005317903
0.02795096
-0.01094845
0.03183259
-0.01587002
0.03608138
-0.01945134
0.03979856
-0.02009131
0.04159869
-0.01680553
0.04133879
-0.01216946
0.03986773
-0.008645356
0.03791827
-0.006612882
0.03576516
-0.005528636
0.03343675
-0.005062672
0.0308651
-0.005121531
0.02798963
-0.005894104
0.02492944
-0.008032853
0.02219468
-0.01325622
0.0206576
-0.02489876
0.01980052
-0.04529327
0.01753518
-0.07163989
0.01284239
-0.09835273
0.006405643
-0.1215933
-0.1264796
0.002764751
0.09303556
0.005662056
0.09759221
0.008438435
0.08791625
0.01109068
0.07699492
0.01358521
0.06593129
0.01586075
0.05512072
0.01788804
0.04492531
0.01969257
0.03549219
0.0214413
0.02679156
0.02317639
0.0188783
0.02504257
0.01161428
0.02726233
0.004756845
0.02999378
-0.001977478
0.03328004
-0.008604172
0.037267
-0.0149354
0.04211283
-0.02071585
0.04775802
-0.02509653
0.05273698
-0.02507027
0.05453758
-0.01860613
0.05314001
-0.01077189
0.05033578
-0.005841123
0.0473158
-0.0035929
0.04433496
-0.002547798
0.04135891
-0.002086628
0.03828182
-0.002044434
0.03506216
-0.002674445
0.03222578
-0.00519648
0.03076744
-0.01179787
0.03104305
-0.02517438
0.03096683
-0.04521704
0.02785276
-0.06852582
0.02074241
-0.09124238
0.01060495
-0.1114558
-0.1158746
0.003525891
0.08950967
0.007246081
0.09387202
0.01087478
0.08428755
0.0143982
0.0734715
0.01773475
0.06259474
0.02075934
0.05209612
0.02341841
0.04226625
0.02585839
0.03305222
0.02804882
0.02460113
0.03010525
0.01682186
0.03221006
0.009509471
0.03461791
0.002348993
0.03753704
-0.004896611
0.04106851
-0.01213564
0.04553951
-0.0194064
0.05136687
-0.02654322
0.05889588
-0.03262554
0.06587388
-0.03204826
0.06750505
-0.02023731
0.06386256
-0.00712939
0.05894377
-0.0009223302
0.05493785
0.0004130137
0.05168405
0.0007060005
0.04869594
0.000901485
0.04577698
0.0008745283
0.04350237
-0.0003998352
0.04315604
-0.004850152
0.04533988
-0.01398172
0.04813372
-0.02796821
0.04814976
-0.04523309
0.04298855
-0.06336461
0.03204353
-0.08029737
0.0165651
-0.09597736
-0.09930952
0.004194853
0.08531482
0.008650914
0.08941596
0.01312199
0.07981647
0.0175596
0.06903389
0.02178376
0.05837059
0.02557078
0.0483091
0.0290256
0.03881143
0.03199799
0.03007982
0.03454949
0.02204963
0.03682499
0.01454637
0.03899962
0.007334837
0.04132231
2.630165e-05
0.04404767
-0.007621969
0.04741716
-0.01550513
0.05190029
-0.02388953
0.05830225
-0.03294518
0.06791716
-0.04224044
0.07874083
-0.01101961
-0.0104163
-0.01101962
-0.01041641
0.08104551
-0.007115861
-0.004155775
-0.007115194
-0.00415516
0.07415672
-0.0008787626
0.000757207
-0.0008773139
0.0007582622
0.06688223
0.001720932
0.001454003
0.001722364
0.001454866
0.06086142
0.006433821
0.05687477
0.004692653
0.05482113
0.002955119
0.05524857
0.0004470875
0.05913995
-0.00429121
0.0655177
-0.0112279
0.07202484
-0.02048886
0.07573937
-0.03168274
0.07372762
-0.04322134
0.06453524
-0.05417222
0.04785884
-0.06362097
0.02489588
-0.07301439
-0.07441364
0.004685858
0.08062896
0.009799173
0.08430264
0.01515803
0.07445761
0.02061635
0.06357558
0.02580512
0.05318182
0.03063355
0.04348067
0.03472825
0.03471673
0.03814746
0.02666061
0.0409971
0.01919999
0.04339157
0.0121519
0.04548381
0.005242594
0.04740319
-0.001893072
0.04930996
-0.009528742
0.0518409
-0.01803607
0.05542661
-0.02747523
0.06123731
-0.03875588
0.01806174
-0.05253802
0.01770564
0.01806172
0.01770579
0.02003199
-0.01299
1.377245e-07
0.02442459
2.976181e-07
-0.02241068
-0.002022331
-0.002543775
-0.002540313
-0.002023648
-0.02407717
0.02239133
4.625548e-07
-1.44429e-10
8.069178e-06
0.000402027
0.0003965207
-0.0196394
0.01732601
0.004034184
1.428662e-07
0.06055921
0.002505763
-0.01508995
-0.01322595
-0.01509004
-0.01322522
0.07050885
-0.005256989
0.08196062
-0.008496647
0.09392
-0.01151229
0.1050622
-0.0154334
0.1135574
-0.01972307
0.1177525
-0.02468401
0.1163604
-0.03029068
0.1086388
-0.03549965
0.09297214
-0.03850561
0.06888895
-0.03953777
0.03642962
-0.04055506
-0.03798403
0.004873283
0.07575568
0.01060323
0.0785727
0.0169679
0.06809294
0.02363526
0.05690821
0.03030428
0.0465128
0.03585843
0.03792652
0.04050412
0.03007104
0.04435192
0.02281281
0.04746402
0.01608789
0.04987936
0.009736551
0.05164782
0.003474141
0.05279039
-0.003035642
0.05338782
-0.01012618
0.05371375
-0.01836199
0.0545581
-0.02831959
0.0562698
-0.04046758
0.01649822
-0.05696063
0.01384738
0.0164988
0.01384801
-0.01808521
6.289946e-07
0.01570445
0.004596066
0.004843979
0.004845292
0.004593004
0.003459433
-0.006127727
-6.364682e-06
-0.001002938
-0.001102637
-0.001101241
-0.001005421
0.00172712
0.001715605
0.001714791
0.001729379
-0.001654187
-0.0001634077
-2.71609e-06
0.0002430561
0.001577255
-0.003365053
0.01605839
0.003463387
-6.632065e-06
-0.003366146
-0.002603582
-0.002606017
-0.007574351
0.1594523
-0.009860844
-0.02675481
-0.04675927
-0.02677165
-0.04679998
0.1682123
-0.01401699
0.1749341
-0.01521845
0.1802807
-0.01685882
0.182368
-0.01752076
0.1803982
-0.01775328
0.1736503
-0.01793605
0.1614791
-0.01811954
0.1440087
-0.01802922
0.1214535
-0.0159504
0.0914065
-0.009490788
0.05028789
0.0005635484
0.01230387
0.00425147
0.01611725
0.01963771
0.0161116
0.01963765
0.01083907
0.0719851
0.01855046
0.06038155
0.02734367
0.04811501
0.03512243
0.03873404
0.0411891
0.03185984
0.04636935
0.0248908
0.05070356
0.0184786
0.05412489
0.01266657
0.05654611
0.007315331
0.05789462
0.002125635
0.0580872
-0.003228219
0.05705013
-0.009089114
0.05460469
-0.01591655
0.05056761
-0.0242825
0.04479838
-0.03469835
0.00961424
-0.04660429
0.007606091
0.009615117
0.007606596
0.01857222
-0.01639415
1.149293e-06
0.001613849
0.002104103
0.002108737
0.001608342
0.0001129416
-2.306734e-05
6.613476e-09
-8.988083e-05
-0.03414077
0.1049014
-0.006667019
1.376406e-05
-0.03412867
-0.01746187
-0.01751281
0.004995939
0.2778734
-0.02425963
-0.09758839
-0.03414928
-0.09758798
-0.03414894
0.268618
-0.004761642
0.2576068
-0.00420722
0.2445521
-0.003804083
0.2298024
-0.002771124
0.213162
-0.001112884
0.1935239
0.001702059
0.1698897
0.005514695
0.1418456
0.01001484
0.1100166
0.01587866
0.07552976
0.02499603
0.03747299
0.03862032
0.04977685
0.0002423657
0.01588145
-6.571492e-06
0.01032242
0.0166187
0.01526261
0.01661867
0.01526252
-0.0008790503
-0.000171015
-0.0008789532
-0.0001708029
0.02037231
0.01313433
0.01203125
0.01313461
0.01203146
0.03064814
0.009936162
0.008983087
0.009936526
0.0089834
0.04006555
0.007475825
0.007182101
0.00747602
0.007182691
0.04621024
0.02571515
0.05227711
0.01882393
0.0573992
0.01335651
0.06131591
0.008749856
0.06384404
0.004787199
0.0648672
0.001102472
0.06427046
-0.002631478
0.06188298
-0.006701631
0.05738796
-0.01142154
0.05020927
-0.0171038
0.03946403
-0.02395311
0.0065115
-0.0321351
0.005985993
0.006511591
0.005985746
0.0132315
-0.01057599
9.320421e-08
0.0009269824
0.0009238669
0.001001152
0.001003897
0.0004432651
-0.0004506358
6.590913e-07
-0.00197348
0.0004402383
0.0003635783
0.0003613743
0.0002045139
0.0002073736
0.0002025378
0.0002005757
0.0001553369
-0.0007936954
-1.038688e-06
0.000797028
-0.0006436212
0.0001552417
0.0001654497
0.0001652989
0.01342905
-0.001458571
0.003502486
-0.01194875
-4.847152e-08
-0.00146425
-0.0010253
-0.001034609
0.01037153
-0.03269648
-0.002765135
0.001796501
-0.002763421
0.001797371
0.021123
-0.01551311
0.02580403
-0.00888825
0.02726597
-0.005266022
0.02697025
-0.002475408
0.0253742
0.0004831634
0.02306318
0.004013077
0.02010015
0.00847773
0.01589223
0.01422276
0.01052194
0.02124895
0.004424736
0.03109323
-0.0009542327
0.04399929
0.04882262
-0.001309295
-4.88247e-07
-0.01626615
0.003902105
0.004885434
0.00488603
0.003902365
-0.0003082655
0.001972693
0.01495381
4.601515e-07
-0.003086925
0.004186693
0.01203401
5.525359e-07
-0.005298887
0.006425349
0.008809121
5.79175e-07
-0.007972868
0.009437055
0.006011416
2.220757e-07
0.05152482
0.01856565
-0.01131806
-0.01086972
-0.01131849
-0.01086905
0.05898065
0.0113681
0.06509712
0.007240034
0.06955973
0.004287249
0.07217557
0.00217136
0.07291302
0.0003650194
0.07170981
-0.001428272
0.06838374
-0.003375561
0.06260103
-0.005638826
0.05389571
-0.008398481
0.04177469
-0.01183209
0.02571414
-0.01607455
0.01221751
-0.02122283
0.009168939
0.008190699
0.009169131
0.008190697
0.001732597
-0.024072
0.008606311
0.008669677
0.008608897
0.008672024
-0.01602281
-0.0272611
0.01060248
0.01190342
0.01060496
0.01190564
-0.03572938
-0.02576256
0.01035355
0.01238036
0.0103543
0.01238091
-0.05068111
-0.01774475
-0.05597023
-0.01022399
-0.05873254
-0.00612594
-0.06062118
-0.003377387
-0.06194455
-0.00115204
-0.06232279
0.0008614049
-0.06130475
0.002995037
-0.05852045
0.005693428
-0.05352273
0.009225041
-0.04622981
0.01395604
-0.03660723
0.02147065
-0.02514699
0.03253905
0.02367563
-0.003349463
-0.0004114971
-6.02548e-06
0.0002621071
0.003504878
-0.0004300243
-0.003479327
3.496863e-06
0.0005501863
0.003355668
-0.0008552026
-0.002846192
3.864088e-06
0.0009337224
0.002763808
-0.001191929
-0.002022853
6.88829e-06
0.001225205
0.001982689
-0.001843593
0.01043144
-1.446625e-06
-0.00183018
-0.001319207
-0.001277403
-0.004159614
0.04784233
-0.01464713
-0.01462956
0.05921043
0.06645047
0.07073772
0.07290908
0.0732741
0.07184583
0.06847026
0.06283144
0.05443296
0.04260086
0.02652631
0.005303483
-0.01876852
-0.04602962
-0.07179217
-0.08953692
-0.09976091
-0.1058868
-0.1092642
-0.1104163
-0.1095549
-0.1065598
-0.1008664
-0.09164136
-0.07768533
-0.05621468
-0.02367563
4.3551e-07
-0.001220115
-0.000682974
-0.0006775973
-0.001228101
-0.006075957
3.520313e-06
0.002944943
0.006586927
1.532691e-05
0.006621675
2.154198e-06
0.0004380776
-0.006920749
1.585037e-05
-8.694213e-05
-8.539323e-05
0.02442508
-0.02241112
-0.002022134
-0.002543344
-0.002540125
-0.002023253
0.02407742
-0.001219848
-0.0006823534
-0.0006773289
-0.00122753
-0.00345897
-0.006076623
3.16319e-06
0.002944536
0.006587894
1.569271e-05
0.00662252
1.935735e-06
0.0004370615
-0.006921711
1.615912e-05
-8.657e-05
-8.508863e-05
0.004109741
7.611991e-06
-0.005405259
-0.004839821
7.334657e-07
0.003911069
0.003253938
0.003262196
0.003906454
3.57438e-05
-8.685114e-05
-7.51591e-08
0.0003620333
-0.000152405
3.565836e-05
3.478938e-05
3.479297e-05
-8.659717e-05
-8.867319e-05
-8.841617e-05
-0.01808499
0.01570451
0.004596365
0.004844401
0.004845482
0.004593658
0.006129122
0.004109595
7.263456e-06
-0.005406125
-0.004839854
-0.01857223
0.003911411
0.003254764
0.003262585
0.003907221
3.571754e-05
-8.684532e-05
-2.228475e-08
0.0003620864
-0.0001523893
3.563435e-05
3.474864e-05
3.475327e-05
-8.659195e-05
-8.867401e-05
-8.841734e-05
3.239663e-06
-0.001741468
9.936784e-05
-3.128771e-08
8.938465e-05
5.9332e-05
-6.636128e-06
-0.001002823
-0.001102469
-0.001101133
-0.001005255
0.001727505
0.001715994
0.001715154
0.001729815
0.001654525
3.24962e-06
-0.001741866
9.97849e-05
-0.0001129524
-1.878683e-08
8.942023e-05
5.926848e-05
-0.002027807
-2.863996e-06
-0.004150712
0.00281633
-0.002306282
0.01353039
4.573103e-06
-0.0005915804
-0.003761134
-0.003756995
-0.001563891
-0.001555081
-0.0001638316
-2.700623e-06
0.0002434917
0.001577565
-0.00202838
0.003364714
-2.370616e-06
-0.004150761
0.002816797
-0.002313813
0.0135504
-4.057097e-06
-0.0005835648
-0.003766698
-0.003760542
-0.001565385
-0.00155634
8.242893e-08
-2.242972e-05
-8.757118e-05
3.909979e-07
0.001208264
0.001013429
0.001015103
0.001206252
7.218878e-05
-0.0005727761
-2.800325e-06
0.0005726241
-6.923647e-05
-0.01639422
0.001614353
0.002105235
0.002109203
0.001609462
2.309742e-05
8.62123e-08
-2.246186e-05
-8.75671e-05
-0.01323175
0.001208544
0.00101381
0.001015287
0.001206881
7.208983e-05
-0.0005732089
-2.734089e-06
0.0005730837
-6.923058e-05
9.523306e-07
0.000413609
0.0001008925
0.0002330954
-0.0001280384
4.960502e-07
0.0001271962
-0.0002327492
5.328965e-09
-8.98603e-05
-0.0004440284
1.049552e-06
0.0004143328
0.0001007359
0.0002330419
-0.0001281625
5.108898e-07
0.0001272839
-0.0002326742
-1.864594e-05
0.0006415377
-0.00922833
-0.009306977
-0.009307437
-0.009227196
-4.884371e-07
0.0001521569
0.0002367639
0.002855357
-0.004210094
0.0001290479
0.004220207
-0.002994518
0.03413793
-2.836419e-05
0.0006448093
-0.009228321
-0.009305907
-0.009306708
-0.009227249
-0.0001554151
-4.796833e-07
0.0001522366
0.0002367002
0.002854227
-0.004211103
0.0001295002
0.004220158
-0.002992783
-3.674572e-07
-0.0007637786
-0.0005221311
0.0001279026
0.0001183387
0.0001183021
0.003718863
1.390902e-06
-0.003342559
0.001992598
0.00212051
0.002117883
0.001997625
1.327242e-06
0.003694559
0.002101219
0.002244813
0.002241021
0.0021056
-0.0004501051
5.80007e-07
-0.001975721
0.0004408879
0.000364307
0.0003619654
0.0002042772
0.0002071505
0.0002023013
0.000200328
0.0007932366
-1.958775e-07
-0.0007632977
-0.0005228038
0.0001280204
0.0001184625
0.0001184155
0.003716303
-0.003339297
0.001993392
0.00212194
0.002118542
0.001999408
0.003691807
0.002101922
0.002246783
0.00224196
0.002107182
-0.003780675
3.882916e-07
-0.0003615718
0.003711834
-0.003317612
-0.0004078279
2.229987e-06
0.0002640293
0.003459181
0.0004319865
-0.003776739
-7.2597e-06
-0.0003638784
0.003715891
-0.003213942
-2.930905e-06
-0.0007472506
0.003108921
-0.003479067
-2.048837e-06
0.0005510649
0.003362037
0.0008555779
-0.003215591
-6.48247e-06
-0.0007477401
0.003114236
-0.00243574
-2.975202e-06
-0.001097795
0.002344581
-0.002848242
9.002819e-07
0.0009339666
0.002768953
0.001192098
-0.002438053
-5.273853e-06
-0.001097986
0.002349214
-0.001232176
-1.708244e-07
-0.001305712
0.000694465
-0.002025244
4.602567e-06
0.001225269
0.001987471
-0.001233606
0.001841912
-1.428107e-06
-0.001304181
0.0006973027
7.055824e-05
-4.94418e-09
3.921217e-05
-0.0001097939
2.847787e-08
1.633562e-07
-0.006128251
-0.001001225
-0.00109806
-0.001098951
-0.001000286
0.003445503
0.001724277
0.001713183
0.001713433
0.001723848
0.001804138
0.0005804893
-0.001783663
3.687732e-06
-0.000604652
-0.0003363484
-0.001454231
0.001224997
-1.174931e-06
-0.0003356986
-0.000332846
-0.0003321267
0.0003886815
0.0003882286
0.0003951029
0.0003954158
0.001800853
-2.338879e-09
0.000578323
-0.0005997221
-0.001778318
-1.133363e-06
-0.0003327292
-3.793823e-08
-0.001452896
0.001217831
4.911847e-08
-0.0003291925
-0.0003328113
-0.0003292754
0.0003863548
0.0003864039
0.0003931124
0.0003931906
7.312144e-05
2.737568e-08
3.996309e-05
-0.0001131119
0.0001094818
-2.257361e-05
-2.133391e-08
3.92233e-08
-8.692603e-05
4.514373e-06
-2.940317e-05
3.073604e-05
3.595992e-09
-5.850846e-06
4.004299e-06
-2.783712e-05
-6.933501e-09
-5.201995e-06
2.903412e-05
7.623413e-09
0.0001430198
-0.0003227452
-5.433375e-08
0.0003357745
-0.0001559345
-6.02336e-08
1.372709e-05
0.00238702
5.229016e-07
-3.330472e-05
-0.0006002972
-0.0005983091
-0.0005984255
-0.0006003101
7.784277e-06
1.384809e-05
7.743986e-06
1.439099e-05
0.002385788
1.421979e-07
-3.366661e-05
-1.826869e-07
-0.0006002613
-0.000598274
-0.0005982771
-0.0006002606
8.130397e-06
1.437032e-05
8.100125e-06
0.0001405455
-0.0003234361
4.86801e-06
0.0003343037
-0.0001562811
0.0002755764
1.217251e-05
0.007025294
0.01921597
-1.309137e-06
-0.002876289
-0.003378449
-0.003342534
-2.006786e-06
-0.01465573
0.1049007
-0.006660483
-0.03412769
-0.01746585
-0.0175132
0.005018247
0.0002809273
0.007043931
0.01921542
-0.002875722
-0.003376619
-0.003341722
-0.01342892
-0.01465461
-4.291532e-05
-0.001919208
-0.003706542
0.002720185
1.552011e-06
0.002786116
0.002787989
0.002998168
0.003003033
6.018182e-07
0.001335725
0.003285574
0.003361503
0.003351039
0.003289163
0.0001553132
0.0001655456
0.0001653907
-9.139867e-07
0.0007966
-0.000644114
0.001457602
-4.30701e-05
-0.001918094
-0.003707541
0.002718948
0.002787616
0.002788672
0.002998724
0.00300436
0.001334941
0.003286042
0.003362475
0.003351515
0.00329022
0.01683278
-7.038562e-07
-0.01844963
0.000201406
-8.49539e-06
-0.0001210909
-0.003421283
-9.610516e-06
0.0008190394
0.003781396
0.003881187
0.003880325
4.058545e-05
3.985349e-05
0.0003093716
0.0003099558
-0.001309392
-0.01623982
0.003896971
0.004876835
0.004879843
0.003895073
0.01683064
0.0003080449
-0.01844878
0.0002086774
7.738385e-06
-0.0001217838
-0.003412245
0.0008201864
0.003779842
0.003871597
0.003876451
3.848528e-05
3.893239e-05
0.0003091271
0.0003096696
0.01414796
4.163943e-07
0.002085986
4.760846e-07
0.003479296
0.003363137
0.00336463
1.95286e-06
0.003179681
0.003215368
0.003311287
0.003311717
0.001972657
0.01495452
0.01414873
0.003086867
0.002086185
0.003479389
0.003364908
0.003365631
0.003179878
0.003216045
0.003312841
0.00331251
0.01091847
5.898694e-07
0.004050369
2.664711e-06
0.002846154
0.002733435
0.00273488
2.593636e-06
0.005010323
0.002436721
0.002541753
0.002541705
0.004186725
0.01203531
0.01091988
0.005298891
0.00405057
0.002847147
0.002735853
0.002736038
0.005010479
0.002437784
0.002543975
0.002542758
0.007435103
4.64719e-07
0.006044473
2.63851e-06
0.002022149
0.001863646
0.001863684
2.034397e-06
0.001228985
0.001543914
0.001541753
0.007930714
0.006425355
0.008810642
0.007436313
0.007972906
0.006044407
0.002023255
0.001866066
0.001864788
0.001229665
0.001545988
0.001542858
0.007930638
-0.002236986
-2.426698e-06
0.001827915
-0.002234375
-1.205589e-05
0.001838603
-0.003584457
-4.374066e-05
-4.286143e-05
0.0002198513
4.904472e-05
0.0002620439
0.003486018
-2.22436e-06
-0.0004114133
-0.00334045
9.992946e-07
0.003594218
0.0002403244
-0.003573435
9.363981e-05
3.384619e-05
5.739404e-05
0.0002419796
4.739163e-06
-0.003568133
0.0001166268
5.622099e-05
0.0002129558
-0.003286347
-0.0004832333
-6.524748e-06
0.000549289
4.959733e-06
0.0005530796
0.003354585
-0.0004289082
4.035952e-06
-2.028256e-06
0.003288099
0.0006272527
8.700917e-06
0.0004811969
-0.000406159
0.0006261277
3.206501e-06
-0.0004084919
7.074916e-06
0.0005488469
-0.002652108
-0.0007612926
-3.309501e-06
0.000809249
2.049274e-06
0.0009373648
0.002763387
-0.000852781
2.047561e-06
-3.484014e-06
0.002653247
0.001017394
3.926235e-06
0.0007608257
-0.0007035787
0.001014894
1.759714e-06
-0.0007033729
2.465245e-06
0.0008102756
-0.001834709
-0.0008832871
7.581456e-06
1.644243e-06
0.0007624894
0.001229169
0.001985926
-0.001187613
1.555869e-06
-2.097034e-06
0.001828914
0.001262034
5.482441e-07
0.0008830884
-0.0008895951
1.657111e-06
0.00125439
-0.0008871305
1.520047e-06
0.0007700746
-0.00564072
-1.892339e-06
2.021471e-07
0.00527138
0.001034271
0.001106763
0.001107008
0.001034057
-7.949306e-08
3.528348e-05
-8.492051e-05
1.730786e-07
0.0003564591
-0.0001528381
3.528929e-05
3.443865e-05
3.444822e-05
-8.492898e-05
-8.666204e-05
-8.666276e-05
0.0003271497
0.001389695
7.315287e-07
-0.001191358
0.0003172202
0.0003266983
0.0003168287
-0.0003710711
-0.0003702863
-0.0003725728
-0.0003730349
-1.180238e-05
0.005656346
-0.005558203
0.0008524379
0.0007306768
0.0007310901
0.0008533927
-3.316376e-08
0.0003249216
0.001383625
-0.001189806