/*--------------------------------*- C++ -*----------------------------------*\
| =========                 |                                                 |
| \\      /  F ield         | OpenFOAM: The Open Source CFD Toolbox           |
|  \\    /   O peration     | Version:  v1706                                 |
|   \\  /    A nd           | Web:      www.OpenFOAM.com                      |
|    \\/     M anipulation  |                                                 |
\*---------------------------------------------------------------------------*/
FoamFile
{
    version     2.0;
    format      ascii;
    class       volScalarField;
    location    "440";
    object      T;
}
// * * * * * * * * * * * * * * * * * * * * * * * * * * * * * * * * * * * * * //

dimensions      [0 0 0 1 0 0 0];


internalField   nonuniform List<scalar> 
32305
(
302.2864
302.5815
302.6559
302.7126
302.7629
302.8098
302.855
302.8993
302.9434
302.9875
303.0319
303.0768
303.1221
303.168
303.2144
303.2615
303.3093
303.3577
303.4068
303.4568
303.5079
303.5601
303.6135
303.6683
303.7246
303.7827
303.8429
303.9058
303.9715
304.0401
304.1106
304.1788
304.2273
304.1317
302.4507
302.6477
302.7177
302.7595
302.7898
302.8158
302.8409
302.8669
302.8948
302.9249
302.9574
302.9922
303.0292
303.068
303.1084
303.1501
303.1929
303.2367
303.2812
303.3275
303.3765
303.4283
303.4831
303.5412
303.6036
303.6716
303.7469
303.8318
303.9289
304.0408
304.1678
304.3027
304.4164
304.4217
302.4693
302.6494
302.6819
302.6735
302.6475
302.6155
302.5838
302.556
302.5345
302.5205
302.5146
302.5166
302.5265
302.5434
302.5668
302.5958
302.6296
302.6678
302.7095
302.7573
302.8108
302.8698
302.935
303.0073
303.0888
303.1823
303.2916
303.4221
303.5799
303.7713
303.9977
304.2459
304.4651
304.5333
302.4612
302.626
302.6168
302.5539
302.4648
302.3657
302.2657
302.1709
302.0852
302.0113
301.9508
301.9042
301.8718
301.8531
301.8475
301.8544
301.8728
301.9019
301.9413
301.993
302.0544
302.1252
302.2063
302.2994
302.4079
302.5366
302.692
302.8827
303.1194
303.4126
303.7642
304.1468
304.485
304.6204
302.4437
302.5921
302.5432
302.4301
302.2821
302.1185
301.9522
301.7915
301.6424
301.5089
301.3933
301.2967
301.219
301.1599
301.119
301.0956
301.0896
301.1007
301.1334
301.1816
301.244
301.3204
301.4124
301.5227
301.6561
301.8197
302.0231
302.2789
302.6029
303.011
303.5022
304.0303
304.4975
304.7006
302.4219
302.5555
302.4716
302.3141
302.1163
301.8978
301.6746
301.4588
301.2585
301.0791
300.9235
300.7925
300.6854
300.6008
300.5373
300.4935
300.4685
300.4646
300.4815
300.5137
300.5606
300.6234
300.7051
300.8103
300.9464
301.1238
301.3572
301.6653
302.0704
302.5928
303.2277
303.9115
304.5097
304.7775
302.398
302.5198
302.4071
302.2131
301.9742
301.7124
301.4449
301.1872
300.9504
300.7415
300.5634
300.4163
300.2986
300.2075
300.1401
300.0936
300.0655
300.0582
300.0644
300.0813
300.1088
300.1488
300.2053
300.2841
300.3947
300.5519
300.778
301.1036
301.5625
302.1815
302.96
303.8011
304.5248
304.853
302.3733
302.487
302.3523
302.1298
301.8592
301.5644
301.2651
300.9783
300.7181
300.493
300.306
300.1566
300.042
299.9581
299.9002
299.8636
299.8471
299.8435
299.8474
299.8561
299.8698
299.8907
299.9229
299.9723
300.0482
300.1661
300.353
300.6529
301.1206
301.8066
302.7177
303.707
304.5445
304.9282
302.3483
302.458
302.3079
302.0653
301.7721
301.4542
301.1333
300.8287
300.5557
300.3241
300.1372
299.9939
299.8905
299.8217
299.7817
299.7643
299.7632
299.7696
299.7772
299.7834
299.7884
299.7951
299.8079
299.8328
299.8784
299.9585
300.0986
300.3477
300.7834
301.4971
302.5185
303.6356
304.5697
305.0041
302.3231
302.4332
302.274
302.0191
301.7123
301.3807
301.0474
300.7338
300.4562
300.2248
300.0435
299.9107
299.8222
299.7721
299.7537
299.7588
299.7766
299.7969
299.8118
299.8185
299.8177
299.8131
299.8101
299.8153
299.8369
299.887
299.988
300.1871
300.5719
301.2783
302.378
303.5909
304.601
305.0815
302.298
302.4125
302.2499
301.9901
301.678
301.3415
301.0046
300.6894
300.4134
300.1869
300.014
299.8933
299.8206
299.7898
299.7946
299.8223
299.8601
299.8948
299.9175
299.9251
299.9201
299.9072
299.8922
299.8818
299.8843
299.9119
299.9862
300.1489
300.4863
301.1694
302.3088
303.5755
304.6386
305.161
302.2727
302.3953
302.2346
301.9764
301.6665
301.3332
301.0006
300.691
300.4217
300.2037
300.0411
299.933
299.8756
299.8638
299.8903
299.9381
299.9944
300.0443
300.0759
300.0863
300.0791
300.0602
300.0354
300.0116
299.997
300.0045
300.0561
300.1952
300.517
301.206
302.3289
303.5919
304.6827
305.2434
302.2482
302.3775
302.2227
301.9717
301.6712
301.3495
301.0303
300.7346
300.479
300.274
300.1238
300.0286
299.986
299.9946
300.0383
300.104
300.1771
300.2397
300.2771
300.2876
300.2774
300.2529
300.2201
300.1848
300.1552
300.1442
300.1756
300.2982
300.6221
301.3343
302.4409
303.6699
304.7524
305.3338
302.2241
302.3592
302.2138
301.975
301.69
301.3871
301.0888
300.8144
300.5787
300.3912
300.2566
300.1758
300.1486
300.1754
300.2352
300.3161
300.4024
300.4721
300.508
300.5127
300.4958
300.4651
300.4254
300.3813
300.3399
300.3143
300.3321
300.4527
300.8088
301.5612
302.6401
303.8125
304.8592
305.4395
302.2001
302.3404
302.2076
301.9851
301.7207
301.4422
301.1707
300.9233
300.7125
300.5472
300.4315
300.3677
300.3606
300.3999
300.471
300.5618
300.6557
300.7236
300.7474
300.7388
300.7117
300.6738
300.6288
300.5797
300.5325
300.5015
300.5231
300.6803
301.1216
301.9206
302.9506
304.0376
305.0153
305.5662
302.1761
302.3213
302.2033
302.0006
301.7609
301.5112
301.2706
301.0539
300.872
300.7317
300.6371
300.5911
300.6009
300.6485
300.725
300.8186
300.912
300.9629
300.9579
300.9301
300.8916
300.848
300.8022
300.7568
300.7174
300.7053
300.7863
301.075
301.6557
302.4766
303.4212
304.3809
305.2426
305.7237
302.1519
302.3017
302.2005
302.0203
301.8085
301.5904
301.3832
301.1995
301.0478
300.9334
300.8597
300.8302
300.8487
300.8987
300.9726
301.0595
301.1408
301.1448
301.0725
301.019
300.9601
300.9086
300.8786
300.8719
300.8954
301.0388
301.3667
301.8922
302.5735
303.3407
304.1343
304.8999
305.5759
305.927
302.1275
302.2819
302.1986
302.0429
301.8612
301.6767
301.5044
301.3538
301.2313
301.1411
301.0863
301.0724
301.0891
301.132
301.1931
301.2614
301.3166
301.2674
301.0046
300.7607
300.5985
300.5127
300.875
301.3088
301.7994
302.3374
302.9001
303.4795
304.0689
304.6509
305.1922
305.6714
306.0653
306.2013
302.1038
302.2621
302.197
302.0671
301.917
301.7675
301.6293
301.5098
301.4138
301.3443
301.3034
301.2931
301.3035
301.3315
301.3708
301.4094
301.4263
301.3414
300.2771
299.0862
299.5826
303.7033
304.1728
304.6116
305.0274
305.397
305.7194
306.002
306.2528
306.4753
306.6545
306.7607
306.7761
306.607
302.082
302.2438
302.1952
302.0911
301.9736
301.8574
301.7503
301.6583
301.5846
301.5311
301.4987
301.4851
301.4829
301.4893
301.499
301.5011
301.4772
301.3568
297.0657
311.5068
309.443
309.2857
309.13
308.9725
308.8172
308.6677
308.5241
308.3824
308.237
308.0801
307.9
307.6683
307.1685
302.0368
302.2321
302.1921
302.1069
302.0172
301.9286
301.848
301.7791
301.7233
301.6811
301.652
301.631
301.6129
301.5952
301.5734
301.5401
301.4849
301.4292
301.3374
300.6452
305.2303
306.9795
307.4058
307.6078
307.7319
307.8095
307.8564
307.883
307.8978
307.8869
307.8368
307.7309
307.5307
307.0217
301.9913
302.2406
302.189
302.0695
301.9904
301.8872
301.8518
301.8126
301.7759
301.7437
301.716
301.6868
301.6539
301.6157
301.5695
301.5114
301.4398
301.4906
303.6903
305.8607
306.4633
306.8267
307.0596
307.2112
307.3201
307.4004
307.4589
307.5024
307.5289
307.5304
307.4997
307.4167
307.2362
306.8557
304.2923
303.8346
301.902
300.7758
301.223
301.5243
301.5593
301.5565
301.539
301.5149
301.4863
301.4568
301.4266
301.3949
301.3603
301.3207
301.2756
301.3768
304.6156
306.0291
306.3027
306.4455
306.5462
306.6247
306.6902
306.7468
306.7981
306.8437
306.8791
306.9016
306.9062
306.8832
306.7945
306.4472
300.8578
300.7123
299.9902
301.0054
300.8585
300.7135
299.9931
300.7438
301.3422
297.5906
301.3417
300.7456
301.3424
297.594
299.1501
297.1722
300.2804
299.1535
297.1741
299.3221
304.9866
299.0915
299.325
305.0015
296.919
301.3834
300.3863
301.3572
296.9226
301.3837
300.3896
300.2031
298.9404
297.0695
300.2064
298.945
315.8318
299.1857
303.0106
315.8326
299.1898
303.0142
300.2842
302.9145
303.4629
301.3407
300.2889
302.915
303.4634
304.2374
304.5919
304.2471
302.3625
303.8377
302.3631
300.9896
301.9026
300.9903
301.1996
300.7766
301.2006
298.0834
300.2649
299.7762
299.6184
299.7394
299.5798
298.16
296.9889
296.3302
296.2169
298.3706
316.0199
316.017
298.4566
311.3954
304.286
305.3525
311.5088
311.3974
304.2872
305.3537
303.976
304.8627
305.4058
300.6512
303.9788
304.8633
305.4064
302.1091
302.0866
302.2604
301.9912
302.1091
302.0938
302.2606
302.237
302.3966
302.2862
302.2406
302.237
302.3966
302.2862
302.1447
302.1153
301.9367
302.189
302.1447
302.1153
301.9368
302.037
301.7937
301.802
302.0695
302.0371
301.7937
301.8021
303.0579
304.0594
341.3917
304.3679
304.3991
362.9929
304.4225
365.0656
340.8327
306.237
303.8348
303.2591
310.0596
303.2588
310.0764
306.2292
300.1868
301.9008
301.5425
301.0786
301.5409
301.0809
300.185
298.8005
300.7735
300.7716
298.6585
300.769
298.6593
298.8004
300.9823
297.5131
299.6838
300.9048
299.6371
300.8968
300.991
300.9832
297.5148
299.6864
300.9064
299.6389
300.8977
300.992
298.2576
299.1065
299.5682
298.1796
299.5284
298.1159
298.3274
297.0946
299.1599
299.0847
298.3427
298.287
298.0854
300.2667
299.7796
299.621
299.7415
299.5815
298.1629
298.2594
299.1088
299.5716
298.1816
299.5302
298.1175
298.3301
297.0951
299.1629
299.0865
298.3445
298.2883
297.8678
298.222
308.4319
298.1637
308.4053
297.9093
297.8696
298.224
308.4378
298.165
308.4041
297.912
300.8139
296.8216
300.8297
296.9828
300.8205
296.8965
300.8258
300.8153
296.8229
300.8312
296.9854
300.8213
296.8981
300.8273
300.1426
296.6198
298.4627
296.5308
298.3509
298.8289
298.3111
298.2005
296.9906
296.3331
296.2183
300.1449
296.6226
298.4671
296.5324
298.3534
298.8316
298.3155
298.2029
299.4746
315.83
315.9694
304.7842
315.9663
304.767
299.5328
298.6551
299.0752
301.3898
301.3401
298.741
298.3726
316.0201
316.017
298.4603
299.477
315.8303
315.9697
304.7911
315.9663
304.7698
299.5366
298.6572
299.0777
301.394
301.3425
298.7447
302.581
300.2132
299.9073
302.8233
299.8365
302.8092
302.597
302.5825
300.2163
299.912
302.8254
299.8394
302.8104
302.5986
327.7917
304.2399
304.5843
319.0535
304.5908
319.1145
327.6325
342.0979
304.4865
304.4821
370.4446
304.456
367.8811
342.6634
327.9847
304.2439
304.608
319.2243
304.6004
319.1817
328.1236
303.9611
302.3617
302.7613
302.5379
302.7605
302.5415
303.9566
306.2445
303.8361
303.2604
310.1055
303.2593
310.0947
306.2478
303.9651
302.362
302.7621
302.5445
302.7608
302.5442
303.9665
299.4779
300.9877
301.2181
299.0558
301.2162
299.0572
299.4766
300.1884
301.901
301.5431
301.0834
301.5412
301.0828
300.1888
299.4792
300.988
301.2186
299.0587
301.2165
299.0583
299.4797
298.8022
300.7739
300.7725
298.6615
300.7694
298.6605
298.8045
300.6717
299.8529
299.9686
300.7616
300.6722
299.8556
299.9702
298.0935
299.0456
298.9782
297.9366
298.9614
297.8747
298.1331
300.8353
303.8267
304.8136
299.5846
300.8401
303.8385
304.8241
297.0063
296.6801
296.6242
301.1144
301.4653
301.5336
301.4295
301.1167
301.4654
301.5337
302.2954
301.3199
300.0484
302.146
299.9799
302.1352
302.31
300.5784
302.587
303.5546
302.5675
303.54
303.9611
303.9766
300.0797
297.5385
298.5488
299.8898
298.4926
299.8736
300.0977
300.0822
297.5416
298.5519
299.8923
298.4954
299.876
300.1002
297.1136
298.0415
297.9564
297.1151
298.0447
297.9593
298.1431
304.9659
298.7811
305.7214
298.7674
305.7018
298.1773
298.0955
299.0474
298.9816
297.9391
298.9634
297.8762
298.1359
298.1448
304.9709
298.7841
305.7298
298.7692
305.7013
298.1798
299.478
296.8444
299.6489
296.6088
296.5471
299.6314
299.498
300.8907
300.3357
297.3788
301.0548
297.2878
301.0441
300.9031
299.4811
296.8475
299.6517
296.6112
299.6341
296.5492
299.5011
300.8919
300.3377
297.3817
301.0567
297.2895
301.0452
300.9045
298.867
297.5305
298.4795
297.4575
298.4074
297.0098
296.6832
296.6271
298.8713
297.5337
298.4843
297.4604
298.4117
298.1857
299.1125
297.4805
299.7294
299.698
297.4073
298.2488
299.8066
302.9944
302.3173
302.0291
302.302
302.01
299.8612
298.1892
299.1169
297.4836
299.7339
299.7023
297.4101
298.2527
299.8089
302.9965
302.3205
302.0328
302.3038
302.0121
299.8648
302.2966
301.3218
300.0529
302.1477
299.9827
302.1361
302.3114
299.0862
298.7238
298.2329
298.0965
298.7371
298.2486
299.0803
299.102
298.1018
298.7944
298.3097
298.7478
298.2586
299.1258
297.0036
296.6054
296.6212
296.5795
296.2459
296.5194
296.4987
296.2402
296.5159
311.119
298.3891
311.1215
316.0178
316.0368
316.0349
316.0347
316.0174
316.0348
298.4024
311.1528
311.1231
300.5811
302.5906
303.5567
302.5696
303.5412
303.9624
303.978
300.0693
297.5293
298.464
299.8568
300.065
298.4824
299.863
300.0714
297.5321
298.4659
299.8584
300.0661
298.485
299.865
298.3043
298.5802
298.2692
298.5947
298.2935
298.2451
298.1976
298.1265
298.1483
298.3003
298.2363
298.1245
298.1251
298.1395
298.2253
298.3163
298.2735
298.6542
298.6055
298.3719
297.9812
297.9992
297.11
297.9305
297.9513
298.188
299.1098
298.1593
298.1043
298.1266
298.078
298.0969
299.1006
298.0951
298.1158
298.0708
298.0061
298.2955
298.2947
299.089
298.7259
298.235
298.0991
299.0821
298.7399
298.2513
299.1049
298.1044
298.7976
298.3129
298.7508
298.2615
299.1289
298.3071
298.582
298.2716
298.2954
298.5976
298.2482
298.2011
298.1285
298.1515
298.3036
298.2392
298.1264
298.1272
298.2267
298.1424
298.3193
298.276
298.6575
298.6085
298.3752
297.9832
298.002
297.1115
297.9322
297.9542
298.1912
299.1127
298.1626
298.1295
298.1072
298.0801
298.0988
299.1032
298.1185
298.0979
298.0741
298.009
298.2974
298.2966
297.9895
297.7693
297.623
297.876
297.7815
297.6362
297.9797
298.1747
297.7893
297.746
298.1942
308.403
297.619
297.5772
298.2419
297.7262
298.1726
297.7389
298.1929
297.5549
308.4036
297.569
298.185
297.994
297.8908
297.8283
297.6851
297.7909
297.6458
298.0487
297.9918
297.771
297.6247
297.8783
297.9813
297.7839
297.6385
298.1768
297.792
297.7485
298.1967
308.4041
297.6217
297.5797
298.2446
297.7277
298.1747
297.7412
298.1953
297.5563
308.4049
298.1863
297.5713
297.9963
297.8933
297.8311
297.6878
297.7935
297.6483
298.0512
299.467
296.84
299.6138
296.5251
296.5429
299.62
299.4627
299.3906
296.7265
296.9275
299.4301
296.6822
299.4097
299.4117
299.3784
299.3885
296.657
296.9163
296.6732
299.3964
299.3732
299.4697
296.8429
299.6153
296.5263
299.6221
299.4641
296.545
299.3938
296.729
296.9299
299.4332
299.4126
296.6844
299.4149
299.381
299.3904
296.6584
296.9186
299.3745
299.3989
296.6752
295.7765
295.7567
295.8713
298.1238
296.5629
298.0585
295.9623
296.5229
299.1513
298.389
299.1188
296.589
295.8651
298.0247
296.5512
298.0462
295.845
296.51
299.0844
298.3754
299.0972
296.4925
295.7843
295.8716
298.8535
297.4366
298.3695
297.4545
298.3937
298.3503
298.2389
298.2788
298.2408
298.2251
298.2651
297.0069
296.6068
296.624
296.5823
296.2486
296.522
296.5001
296.2427
296.5184
295.7787
295.7579
295.8737
298.1274
296.5655
298.0619
295.9651
296.5258
299.1557
298.393
299.123
296.5922
295.8675
298.027
296.5537
298.0494
295.8463
296.5127
299.0871
298.3792
296.494
299.1008
295.7866
295.8742
298.8576
297.4384
298.372
297.4572
298.3977
298.355
298.2429
298.283
298.2433
298.2288
298.269
298.493
297.8455
299.472
298.6734
297.8604
299.4828
298.4807
298.1747
299.099
297.3855
299.6638
299.6767
297.4036
298.1594
297.7893
297.8505
297.7787
297.7642
298.5057
298.6865
297.9353
299.5288
297.8666
299.5025
298.5625
311.1195
298.3923
311.122
316.018
316.0368
316.0349
316.0347
316.0176
316.0348
298.4057
311.1555
311.1239
298.4964
297.8476
299.4745
298.6766
298.4824
297.8633
299.4859
298.178
299.103
297.387
299.6665
299.6803
297.4063
298.1614
297.7926
297.8541
297.7818
297.7658
298.5093
298.6899
297.9385
299.5326
297.8697
299.5061
298.5664
297.0325
296.9914
296.9614
298.8641
297.5704
297.9763
298.6398
297.9564
298.621
298.8851
298.8671
297.5737
297.9794
298.643
297.9595
298.6242
298.8881
297.1404
297.5537
297.5154
297.1422
297.5563
297.518
298.1169
296.8783
298.3336
296.6374
296.5995
298.3142
298.1373
298.1206
296.8818
298.3372
296.6406
298.3177
296.6026
298.141
296.8719
300.1735
299.0232
299.7941
299.7632
298.9909
296.9419
297.0363
296.9949
296.9649
296.875
300.1769
299.0271
299.7985
298.9946
299.7673
296.9453
298.2173
298.1205
298.0197
298.0876
298.1239
298.0243
298.2167
298.2684
298.1249
298.1945
298.1005
298.174
298.069
298.2912
296.9929
296.9227
296.9264
296.1329
296.2849
296.4149
296.0903
296.3785
296.3252
296.0262
296.2234
296.0322
296.3304
316.1203
316.0361
316.0191
316.0679
316.0361
316.0665
316.1229
316.1187
316.0614
316.036
316.017
316.0358
316.0616
316.1187
298.8161
297.517
297.8999
298.5689
298.8151
297.9034
298.5724
298.8184
297.5192
297.9014
298.5705
298.8163
297.9054
298.5745
297.9298
298.0633
298.2614
298.0676
297.9272
297.7101
297.7518
298.1468
298.4393
297.7297
298.4084
297.7516
297.6674
298.3844
297.68
298.1184
297.682
298.3863
297.6662
297.9727
298.2942
298.144
298.1131
298.0136
297.9823
297.9864
297.0992
297.4626
297.4678
298.0645
298.0266
298.3127
298.2891
298.2198
298.1227
298.0215
298.0898
298.2183
298.1263
298.0266
298.2715
298.1277
298.1976
298.1036
298.177
298.072
298.2943
297.9321
298.0649
298.2636
297.9291
298.07
297.7128
297.7545
298.1488
298.441
297.7324
298.4101
297.7544
297.6695
298.3859
297.6816
298.1202
297.684
297.6677
298.3881
297.9755
298.2969
298.147
298.1161
298.0165
297.9843
297.9887
297.1
297.4639
297.4696
298.0675
298.0296
298.3145
298.291
298.1948
297.9313
297.9033
297.6672
311.7727
308.3968
297.5677
297.5504
311.7564
297.7018
297.8649
298.1662
297.8679
297.6199
297.4979
311.7549
308.4012
297.5013
311.7491
297.6184
298.1968
297.9337
297.9057
297.6697
311.7732
308.3988
297.5704
297.553
311.7566
297.7044
297.8662
298.1681
297.8698
297.6221
297.4994
311.7535
308.4023
297.5032
297.6197
311.7492
298.0688
296.8267
298.261
296.5462
296.5511
298.2643
298.068
298.0713
296.8289
298.2626
296.5474
298.2664
298.0693
296.553
296.8589
300.1538
298.9567
299.7316
299.7426
298.969
296.8414
296.3749
297.0435
296.5985
296.2878
297.0217
296.2484
296.3978
296.3135
296.1911
296.9559
296.5355
296.9605
296.1964
296.3118
296.9957
296.9243
296.929
296.1352
296.2876
296.417
296.0926
296.3806
296.3266
296.0274
296.2255
296.034
296.3322
296.8619
300.1567
298.9588
299.7337
298.972
296.843
299.7457
296.3777
297.0466
296.6013
296.2899
297.0248
296.2505
296.4007
296.3157
296.1924
296.9576
296.5374
296.9626
296.313
296.1982
307.0195
307.1077
300.1852
299.4859
307.1115
300.1962
307.019
315.8609
315.9357
315.9672
315.9735
315.972
315.934
315.8619
315.8601
315.9711
315.9321
315.9667
315.9714
315.9327
315.8597
307.0233
299.5062
307.1414
300.2434
307.118
300.2165
307.0778
316.1205
316.0361
316.0193
316.0684
316.0361
316.0671
316.1231
316.1188
316.0615
316.036
316.0171
316.1187
316.0358
316.0618
307.0217
307.109
300.1875
299.489
307.0203
307.1134
300.1993
315.8616
315.9362
315.9674
315.9742
315.9344
315.9724
315.8632
315.8605
315.9712
315.9322
315.967
315.933
315.8599
315.9716
307.027
299.5098
307.1463
300.2473
307.1209
300.2201
307.0845
301.2588
299.9252
299.8731
301.237
301.2057
299.8901
301.2937
301.2389
301.1738
299.8534
299.8503
301.1852
299.8666
301.2307
301.2635
299.9301
299.8777
301.241
299.8948
301.2096
301.2983
301.2428
301.1761
299.8559
299.8542
299.8704
301.2325
301.1884
298.1493
297.8914
297.8274
298.1251
297.7858
298.1965
298.219
297.7654
298.0993
297.8853
298.1088
297.7786
298.1822
298.1753
297.0258
296.9384
296.9558
296.9313
296.6497
296.9018
296.8787
296.6434
296.896
298.8488
297.5535
297.9255
298.5924
297.9397
298.6054
298.8377
298.8518
297.5567
297.9284
298.5954
297.9427
298.6085
298.8406
297.7829
297.8036
297.1325
297.4846
297.5066
297.7156
297.9933
297.6754
297.6744
297.6354
297.6049
297.6419
297.9827
297.6649
297.6279
297.8511
297.8132
297.7854
297.8063
297.1344
297.487
297.5092
297.7184
297.9964
297.6783
297.6772
297.6383
297.6074
297.6444
297.9858
297.6676
297.6307
297.854
297.816
305.0707
305.6996
297.7873
297.7687
305.0436
298.1709
298.1882
297.7477
305.0459
305.6993
297.7556
305.0443
298.1595
298.1549
298.1526
297.8938
297.8302
298.1283
297.7884
298.1997
298.2224
297.767
298.1012
297.8875
298.1115
297.781
298.1849
298.1768
305.0851
305.7019
297.7899
297.7712
305.0514
298.1735
298.191
297.7493
305.0474
305.701
297.7577
305.0485
298.1619
298.1562
298.1019
296.8688
296.5679
298.285
296.5909
298.2984
298.0907
297.9421
296.5894
296.5757
297.8293
296.5521
297.8119
297.9619
297.9271
297.7845
296.5211
296.5676
296.5436
297.9155
297.7974
298.9665
297.32
299.5918
299.5686
298.9386
299.8814
299.9078
299.5457
298.9089
297.3084
299.5538
298.92
299.8666
299.8607
298.1054
296.8722
298.2883
296.5706
298.3018
296.594
298.094
297.9458
296.5926
296.578
297.8331
296.5551
297.8155
297.9657
297.9306
297.7877
296.5238
296.5699
296.5466
297.9188
297.8009
298.97
297.3227
299.5949
299.5716
298.942
299.8849
299.9113
299.5475
298.9111
297.311
299.5564
298.9229
299.8697
299.8622
297.1073
296.8806
297.084
296.908
297.2034
297.4174
297.4887
297.3693
297.2556
297.1923
297.3297
297.4806
297.3581
297.1686
297.1204
296.9661
296.9207
297.1717
297.0294
296.9416
296.9591
296.9344
296.6528
296.9048
296.8816
296.6463
296.8989
297.1106
296.8836
297.087
296.9113
297.2068
297.4209
297.4918
297.3727
297.2591
297.1956
297.3328
297.4837
297.3614
297.1716
297.1238
296.9696
296.9241
297.1752
297.8541
297.5688
297.4394
297.3732
297.5449
297.3291
297.8804
297.8343
297.294
297.5059
297.4305
297.5243
297.8185
297.3194
297.8578
297.5724
297.4424
297.3764
297.5484
297.3322
297.8841
297.8379
297.2969
297.5091
297.4335
297.5277
297.8219
297.3225
298.2234
298.0913
298.1345
298.0349
298.2312
298.1294
298.0285
298.2534
298.1189
298.1452
298.0416
298.2415
298.1587
298.0596
296.9961
296.9363
296.9293
296.8626
296.6097
296.8665
296.8763
296.6131
296.8692
296.1725
296.5473
296.1318
296.274
296.0531
296.3478
296.0801
296.3708
296.5401
296.0963
296.1219
296.0706
296.5034
296.0761
296.2278
296.0479
296.344
296.0362
296.3341
296.5069
296.0912
296.0798
297.814
316.114
316.114
297.8249
297.8235
298.3889
311.1194
316.0231
316.0231
298.3925
297.8231
297.7952
297.7207
297.7251
297.7954
297.8274
316.0231
311.1203
298.4067
316.0231
297.8398
298.3991
297.7989
297.7373
297.8104
297.7288
297.8134
316.114
316.114
297.814
316.1456
316.1334
316.1454
316.1334
316.1413
316.0541
316.0551
316.142
316.1202
316.0183
316.0361
316.0637
316.119
316.036
316.065
316.129
316.0777
316.0359
316.1202
316.1199
316.0767
316.1308
316.1413
316.0552
316.1409
316.0551
316.129
316.1198
316.0749
316.0354
316.1282
316.1199
316.0758
316.1456
316.1334
316.1334
316.1459
316.1453
316.1334
316.1334
316.1454
316.128
316.0736
316.0347
316.1199
316.1199
316.0737
316.128
316.1408
316.0551
316.0548
316.1408
316.1187
316.0171
316.0361
316.0627
316.119
316.0357
316.0621
316.1408
316.0551
316.1409
316.0547
316.128
316.1198
316.0348
316.0744
316.1199
316.1282
316.074
316.1453
316.1334
316.1334
316.1454
297.8501
316.114
297.8313
316.114
297.8753
298.4738
311.1165
316.0221
316.0231
298.4535
297.915
297.8432
297.8218
297.7771
297.8904
297.8657
316.0231
298.4199
311.1219
297.8471
316.0232
298.4357
297.8351
297.7442
297.8169
297.7681
297.8611
316.1136
316.114
297.9079
298.8219
297.5231
297.9159
298.5839
298.829
297.9092
298.578
298.8244
297.5256
297.9186
298.5866
298.8317
297.9116
298.5804
297.8919
297.7784
297.7836
297.8899
297.9334
298.2646
298.0784
298.0713
297.9418
297.895
297.792
297.7865
297.9041
297.7017
298.1411
297.7003
298.3923
297.7133
297.6834
298.4038
297.7222
297.8277
297.7878
297.7633
297.7136
297.7595
297.6949
297.7801
297.6802
297.7434
297.748
297.6782
297.6706
298.1208
297.6926
298.3916
297.6868
297.6801
298.3885
297.683
297.7565
297.7506
297.6916
297.9658
298.2891
298.0854
298.1037
297.9479
297.9347
297.8664
297.8266
297.9765
297.9273
297.7978
297.9097
297.8187
297.9626
297.9862
297.9933
297.9667
297.9966
297.9966
297.9901
298.0088
297.9909
297.9775
297.9706
297.9994
297.7809
297.7747
297.1023
297.4804
297.4714
297.619
297.9363
297.5855
297.6244
297.5914
297.6021
297.6374
297.9407
297.628
297.5953
297.7687
297.7741
297.8909
297.9601
297.8077
297.8276
297.8717
297.9781
297.9024
297.8724
298.0246
297.839
297.9877
297.9416
297.8535
297.9575
297.8036
297.9471
297.7968
297.8665
297.8505
297.9417
297.7893
297.9461
297.7943
297.8479
298.0019
298.0201
298.0467
298.0353
298.0752
298.0084
298.0379
298.012
297.983
298.0255
298.0017
298.03
298.308
298.2912
298.226
298.0936
298.1372
298.0376
298.2339
298.132
298.0309
298.2564
298.1217
298.1481
298.0444
298.2444
298.1616
298.0625
297.8942
297.7802
297.8912
297.7858
297.9358
298.2668
298.0811
298.0738
297.9445
297.8974
297.7946
297.7889
297.9068
297.7044
298.1431
298.3941
297.7029
297.7159
297.686
298.4055
297.7248
297.8304
297.7905
297.766
297.7162
297.7621
297.6974
297.7827
297.6823
297.7447
297.6795
297.7502
297.6728
298.1228
298.3934
297.6951
297.689
297.6826
298.3904
297.6852
297.759
297.7529
297.6941
297.9686
298.2917
298.0882
298.1066
297.9506
297.9375
297.8691
297.8293
297.9794
297.93
297.8004
297.9123
297.8214
297.9646
297.9952
297.9886
297.969
297.9988
297.9993
297.9925
298.0114
297.9934
297.9801
297.973
298.0017
297.7833
297.7767
297.1035
297.4827
297.4734
297.6203
297.9386
297.5874
297.6263
297.5933
297.6046
297.6398
297.9431
297.6301
297.5974
297.7704
297.776
297.894
297.8104
297.9628
297.8305
297.8746
297.981
297.9056
297.8754
298.0277
297.8419
297.9907
297.9448
297.8559
297.8061
297.9601
297.9494
297.7991
297.8693
297.8528
297.9436
297.7909
297.8493
297.9482
297.7964
298.0046
298.023
298.0498
298.0384
298.0783
298.0114
298.0409
298.0147
297.9857
298.0286
298.0046
298.033
298.3098
298.293
297.657
297.7482
297.6815
297.9841
297.7418
297.6765
297.664
297.6533
297.9837
297.736
297.6702
297.7401
297.6732
297.6521
297.8611
297.8784
298.1879
297.8799
297.8958
298.1958
297.8605
297.7722
297.8269
297.8314
297.7943
298.2251
298.1911
297.7701
297.8074
297.7585
297.8239
298.1796
297.7878
297.9188
297.8863
297.783
297.6604
298.2065
297.7644
297.6791
297.9309
315.5081
315.5143
297.9676
297.6582
308.3948
311.759
297.5221
297.5356
311.7549
297.6403
297.9241
315.5146
315.5138
297.9068
297.7928
298.2133
297.7185
297.6894
297.8304
297.8589
297.8531
298.1698
297.7913
297.7293
297.7543
297.7945
297.7576
298.169
298.1686
297.8767
297.8708
298.1722
297.7675
297.7342
297.8041
297.7973
297.7607
298.1781
297.8486
297.8521
297.7512
297.6557
298.1888
297.6481
297.7614
297.8903
315.5139
315.5118
297.887
297.624
308.3999
311.7574
297.5135
297.507
311.7478
297.6354
297.8938
315.5143
315.5116
297.9037
297.7505
298.1885
297.6423
297.6464
297.7474
297.6837
297.7534
297.6912
298.0094
297.6733
297.7702
297.7037
297.6983
298.0174
297.8082
297.7376
297.779
297.7195
297.7168
297.6592
297.9861
297.7505
297.6838
297.7438
297.6787
297.6664
297.6553
297.9856
297.7374
297.6718
297.6534
297.742
297.6752
297.8634
297.8808
298.1899
297.8822
297.8982
298.1978
297.863
297.7748
297.8295
297.8338
297.7968
298.2271
298.1931
297.7725
297.8098
297.7611
297.8264
298.1817
297.7902
297.9212
297.8888
297.7855
297.6629
298.2091
297.7669
297.6817
297.9334
315.5081
315.5143
297.9701
297.6608
308.3968
297.5246
311.7593
297.5382
297.6428
311.7551
297.9265
315.5146
297.9092
315.5138
297.7954
298.2159
297.7212
297.6921
297.8331
297.8611
297.8551
298.1716
297.7925
297.7557
297.7312
297.7964
298.1703
297.7595
298.1706
297.879
297.8728
297.8499
297.854
298.1741
297.7698
297.7363
297.8064
297.7994
297.7627
298.1801
297.7534
298.1909
297.6581
297.6503
297.7638
297.8924
315.5136
297.8887
315.5118
297.6262
308.4007
297.5159
311.7578
297.5092
297.6378
311.748
297.7526
298.1905
297.6436
297.7491
297.6485
297.8959
315.5144
297.9061
315.5116
297.6863
297.7558
297.6937
298.0118
297.6758
297.7728
297.7064
297.701
298.0198
297.8109
297.7404
297.7815
297.7223
297.7196
298.0747
296.8303
296.5638
298.276
298.0821
296.5544
298.2696
297.8945
296.4997
296.5302
297.7621
296.5045
297.7654
297.8935
297.8999
297.7763
296.517
296.5337
297.907
296.5077
297.7704
297.6778
296.7069
296.7101
297.7358
297.7187
296.6895
297.6964
297.6643
297.6922
296.6956
296.6602
297.7045
296.6741
297.654
297.6332
296.6335
296.6608
297.6696
296.6373
297.6725
297.6324
297.6388
297.6836
296.6667
296.6505
296.6434
297.6775
297.6459
298.0775
296.8327
298.2789
296.5665
298.0852
298.2722
296.5566
297.8968
296.5009
297.7637
296.5319
297.8947
297.7674
296.5064
297.9026
297.7792
296.5196
296.5355
297.91
297.773
296.5098
297.681
296.7094
296.7125
297.7393
297.7221
296.6919
297.6997
297.6674
297.6952
296.698
296.6624
297.7077
297.6569
296.6764
297.6355
296.6348
297.671
296.6625
297.6335
297.6745
296.639
297.6413
297.6863
296.6685
296.6526
297.6798
297.6486
296.6453
296.9458
295.7643
296.9353
295.7623
296.9289
296.9342
295.8159
296.4486
296.5774
295.9014
296.5969
295.7915
296.4694
296.3569
296.58
296.2154
296.987
297.0035
296.2397
296.3424
295.7755
296.6709
296.6447
295.821
295.7653
296.621
296.6396
295.7419
295.8288
295.9152
296.6435
296.5073
296.6194
296.4789
295.8762
297.0462
296.7146
296.5954
296.554
296.669
297.0729
297.0254
296.5198
296.6311
297.009
296.5442
296.6583
295.7705
296.4442
296.5651
295.8528
296.434
296.5565
295.7857
295.7182
296.602
296.6067
295.716
296.321
296.5427
296.2109
296.9759
296.9676
296.2001
296.3308
295.7219
296.6183
296.6098
295.7365
295.7684
295.8507
296.4276
296.5475
296.4328
296.5513
295.7662
296.9778
296.6044
296.499
296.5036
296.6104
296.9762
296.9855
296.5157
296.6259
296.5062
296.9963
296.6144
296.9515
295.8134
296.9768
295.8264
297.0386
296.9882
297.0626
296.8755
297.0786
296.8638
297.1431
297.3018
297.441
297.141
297.3084
297.0604
296.8555
296.8618
297.0584
297.1474
297.3243
297.4449
297.1629
297.3128
296.7065
296.823
296.8505
296.6831
297.3494
298.2871
298.3224
297.4442
297.4201
298.259
297.3755
296.6751
296.6486
296.6045
296.7218
296.665
296.567
296.594
296.642
297.3293
297.3812
298.299
298.2156
297.3994
297.3136
298.2356
296.7189
296.9081
296.8631
296.7659
296.6632
296.8179
296.8063
296.6779
296.6179
296.5405
296.5464
296.6158
297.282
298.1778
297.3469