/*--------------------------------*- C++ -*----------------------------------*\
| =========                 |                                                 |
| \\      /  F ield         | OpenFOAM: The Open Source CFD Toolbox           |
|  \\    /   O peration     | Version:  v1706                                 |
|   \\  /    A nd           | Web:      www.OpenFOAM.com                      |
|    \\/     M anipulation  |                                                 |
\*---------------------------------------------------------------------------*/
FoamFile
{
    version     2.0;
    format      ascii;
    class       volVectorField;
    location    "440";
    object      U;
}
// * * * * * * * * * * * * * * * * * * * * * * * * * * * * * * * * * * * * * //

dimensions      [0 1 -1 0 0 0 0];


internalField   nonuniform List<vector> 
32305
(
(-0.2690205 0.124324 -1.866216e-19)
(-0.8497465 0.2793042 -1.144008e-22)
(-1.296057 0.211849 0)
(-1.666296 0.169279 9.076022e-21)
(-1.978144 0.1394563 7.602268e-21)
(-2.240773 0.1163042 6.618625e-23)
(-2.461956 0.09696116 -3.071374e-23)
(-2.64731 0.08042576 -1.111247e-21)
(-2.80153 0.0661426 -8.652009e-22)
(-2.928628 0.05378482 3.558085e-22)
(-3.032214 0.04310751 1.418408e-22)
(-3.115526 0.03390027 -1.036693e-22)
(-3.181441 0.02596471 -3.989975e-23)
(-3.232467 0.01911088 -2.487083e-23)
(-3.270748 0.01316389 -7.839334e-24)
(-3.298094 0.007956285 -3.314336e-24)
(-3.316 0.003325971 0)
(-3.325677 -0.0009094867 0)
(-3.327965 -0.004945519 -6.206298e-24)
(-3.323246 -0.008878422 1.039596e-23)
(-3.311992 -0.01294203 2.569837e-23)
(-3.29371 -0.01758261 0)
(-3.267217 -0.02330617 -4.095799e-24)
(-3.2303 -0.03067922 2.559084e-22)
(-3.179533 -0.04037383 3.094664e-22)
(-3.110065 -0.05330871 0)
(-3.015113 -0.07063479 -1.124979e-22)
(-2.88559 -0.09376084 1.541041e-22)
(-2.709852 -0.1243583 4.217722e-22)
(-2.473216 -0.1642536 -1.158954e-21)
(-2.155739 -0.2159304 3.207226e-20)
(-1.740296 -0.2857725 1.370512e-19)
(-1.267821 -0.3736777 1.224624e-19)
(-0.5601423 -0.4448346 -4.317629e-20)
(-0.3727655 0.5450291 1.602976e-21)
(-0.7176584 0.5848851 -3.72285e-20)
(-1.110023 0.5018724 -3.486297e-20)
(-1.445561 0.4359022 0)
(-1.737572 0.374601 1.407702e-20)
(-1.985972 0.319936 1.854661e-20)
(-2.196215 0.2708725 4.945133e-21)
(-2.372269 0.2273012 -1.352209e-22)
(-2.518264 0.1888745 1.787773e-21)
(-2.637946 0.1552917 1.508647e-21)
(-2.734802 0.1261974 -6.131016e-23)
(-2.811983 0.101185 -3.790305e-22)
(-2.87227 0.07979707 -1.881404e-22)
(-2.918064 0.06155817 1.191386e-22)
(-2.951387 0.04600329 0)
(-2.973925 0.03269393 5.837969e-25)
(-2.987094 0.02122337 2.299577e-26)
(-2.992104 0.01117951 4.32627e-25)
(-2.989717 0.002081787 9.353076e-25)
(-2.980917 -0.006423347 9.881365e-25)
(-2.966064 -0.01488856 7.018322e-24)
(-2.944755 -0.02432255 -2.467457e-22)
(-2.915905 -0.03589856 -3.597516e-22)
(-2.877604 -0.05108104 -6.666765e-23)
(-2.826731 -0.07163193 -1.243569e-21)
(-2.758736 -0.09970788 -1.268813e-21)
(-2.667347 -0.1379276 -2.312464e-22)
(-2.543938 -0.1893064 3.129456e-22)
(-2.377145 -0.2568729 1.525881e-20)
(-2.152592 -0.3425807 1.574318e-20)
(-1.852372 -0.4461648 3.497335e-20)
(-1.455166 -0.5684724 0)
(-0.9538404 -0.7053346 0)
(-0.4574683 -0.7745998 -8.793344e-20)
(-0.2898458 0.9779558 3.88939e-21)
(-0.5613787 0.9499109 -7.114692e-20)
(-0.9317889 0.8287794 -1.419011e-20)
(-1.22817 0.7262505 -1.634908e-20)
(-1.488991 0.6274731 -1.257845e-20)
(-1.709071 0.5370529 -1.113762e-20)
(-1.894853 0.4544336 2.296266e-21)
(-2.049467 0.3802893 -9.647784e-22)
(-2.176791 0.3145156 4.122025e-21)
(-2.280288 0.2568252 2.845356e-21)
(-2.363236 0.2066818 -1.458823e-22)
(-2.428567 0.1633852 6.173914e-23)
(-2.478844 0.1261183 2.370608e-22)
(-2.516228 0.09402894 3.140776e-22)
(-2.542507 0.06630397 6.583445e-26)
(-2.559167 0.04221818 -1.060112e-23)
(-2.567484 0.02113474 -7.942702e-24)
(-2.568615 0.002456281 3.153028e-24)
(-2.563223 -0.01433454 1.163112e-23)
(-2.553092 -0.02986997 -8.346279e-23)
(-2.538393 -0.04545181 -6.598434e-23)
(-2.518998 -0.06287284 -2.362703e-22)
(-2.494001 -0.08407797 -3.446839e-22)
(-2.461721 -0.1114611 -1.016466e-21)
(-2.419555 -0.1480217 -1.164345e-21)
(-2.363547 -0.1974151 4.639321e-22)
(-2.288023 -0.2641872 -1.233955e-21)
(-2.184882 -0.3537116 -1.06089e-20)
(-2.042861 -0.4714962 8.302266e-21)
(-1.847077 -0.6214196 1.636813e-20)
(-1.580542 -0.8026961 2.544708e-20)
(-1.22437 -1.010301 1.863081e-20)
(-0.7668355 -1.235891 1.400912e-20)
(-0.3182553 -1.498856 2.264043e-22)
(-0.2251449 1.369088 -1.388713e-23)
(-0.4493972 1.270716 -2.079922e-20)
(-0.7746446 1.114403 1.777759e-20)
(-1.02538 0.9751841 -3.762987e-20)
(-1.25016 0.8420544 0)
(-1.436785 0.7196134 0)
(-1.592925 0.6074913 -1.67233e-21)
(-1.720739 0.506896 -4.972926e-21)
(-1.823974 0.4178659 9.915319e-22)
(-1.90583 0.3400926 2.124658e-21)
(-1.969447 0.2728441 1.015678e-21)
(-2.017629 0.2151102 -4.653831e-22)
(-2.052808 0.1657035 -8.30563e-22)
(-2.077011 0.1233927 -3.623186e-22)
(-2.0919 0.08703573 -1.46169e-22)
(-2.098863 0.05564996 8.344795e-24)
(-2.099167 0.02838422 4.545814e-24)
(-2.093895 0.004496368 2.741824e-23)
(-2.084108 -0.01619594 1.339245e-22)
(-2.072268 -0.03456503 1.186754e-22)
(-2.058065 -0.05284278 -1.833379e-22)
(-2.041641 -0.07337014 2.636668e-22)
(-2.022354 -0.09881627 1.301447e-21)
(-1.998995 -0.1324221 1.648989e-21)
(-1.969563 -0.1782521 -2.134219e-22)
(-1.930953 -0.2414782 -2.803425e-21)
(-1.878385 -0.32868 -1.560032e-21)
(-1.804435 -0.4479135 -9.721394e-21)
(-1.69786 -0.6076696 -1.444629e-20)
(-1.542646 -0.8142323 -1.465538e-20)
(-1.321176 -1.065932 2.878329e-20)
(-1.013453 -1.351096 -7.418965e-21)
(-0.6203694 -1.643323 -2.554832e-20)
(-0.2335603 -1.966662 0)
(-0.1761585 1.677825 0)
(-0.3600538 1.539559 -1.402562e-20)
(-0.6344336 1.360243 2.319559e-20)
(-0.8405291 1.189863 -1.927099e-20)
(-1.029263 1.026269 1.617682e-20)
(-1.182536 0.8746475 -9.174294e-21)
(-1.309139 0.7353038 -2.507978e-23)
(-1.409988 0.6100026 7.094737e-21)
(-1.488652 0.4990693 0)
(-1.548034 0.4023005 8.863849e-22)
(-1.591114 0.3188446 7.47065e-22)
(-1.620527 0.2474161 3.164896e-22)
(-1.638546 0.1864568 2.682257e-22)
(-1.647053 0.1343654 0)
(-1.647624 0.08970109 0)
(-1.641683 0.05129479 2.020278e-23)
(-1.630666 0.01821547 9.048529e-25)
(-1.615438 -0.009897544 3.509294e-23)
(-1.600558 -0.03302171 5.586366e-23)
(-1.585374 -0.05307612 8.169103e-23)
(-1.570701 -0.0730278 2.261287e-22)
(-1.55665 -0.09553518 7.796903e-22)
(-1.542923 -0.1237519 6.138608e-22)
(-1.528815 -0.1615243 -1.508024e-21)
(-1.513049 -0.2137683 8.552596e-22)
(-1.493535 -0.2869328 4.820657e-21)
(-1.466707 -0.3896114 6.59145e-21)
(-1.426079 -0.5329581 8.630528e-21)
(-1.360653 -0.7293199 1.102438e-20)
(-1.252636 -0.9884913 1.294979e-20)
(-1.083223 -1.306685 5.519558e-20)
(-0.8293058 -1.663696 1.552776e-20)
(-0.5073952 -2.013673 -3.536984e-22)
(-0.1786138 -2.371751 -4.759491e-21)
(-0.1372535 1.922006 3.851473e-21)
(-0.284339 1.760896 1.647445e-21)
(-0.5097464 1.564451 1.270187e-20)
(-0.6749107 1.368818 -9.221074e-21)
(-0.8297831 1.179266 6.893947e-21)
(-0.952528 1.001567 -1.487719e-20)
(-1.052437 0.8376134 0)
(-1.1295 0.6899411 0)
(-1.187115 0.5592661 0)
(-1.22781 0.4455585 -3.931809e-21)
(-1.254298 0.3478593 -1.794466e-22)
(-1.268846 0.2645956 1.8987e-21)
(-1.273311 0.1938473 4.487759e-22)
(-1.269143 0.1336891 0)
(-1.25754 0.08246744 6.603248e-23)
(-1.239713 0.03892382 1.708726e-23)
(-1.216572 0.002403588 -1.631728e-28)
(-1.191275 -0.02640356 4.048865e-23)
(-1.16745 -0.048404 1.439877e-22)
(-1.144753 -0.06702023 1.053936e-22)
(-1.124737 -0.08513139 0)
(-1.1079 -0.1058228 0)
(-1.094503 -0.1326817 0)
(-1.084488 -0.1700538 0)
(-1.077517 -0.2235364 1.577936e-21)
(-1.072834 -0.300703 2.283582e-21)
(-1.068643 -0.4121715 2.137495e-22)
(-1.05993 -0.5727615 7.850922e-21)
(-1.03653 -0.7997337 1.932199e-20)
(-0.9772824 -1.107355 1.123908e-20)
(-0.8627446 -1.488809 1.921247e-20)
(-0.6621412 -1.913585 2.423986e-20)
(-0.4120443 -2.31351 1.602209e-20)
(-0.1363857 -2.694827 -3.657281e-21)
(-0.1057166 2.113538 4.855808e-21)
(-0.2191628 1.938279 1.605944e-22)
(-0.3995708 1.728789 7.855655e-21)
(-0.5278466 1.513243 -1.000505e-20)
(-0.6515906 1.302671 -7.075817e-21)
(-0.7476041 1.103221 -6.030598e-21)
(-0.8249293 0.9181047 0)
(-0.8825622 0.7509401 0)
(-0.9240224 0.603057 1.819057e-21)
(-0.9513861 0.4745771 -1.867151e-24)
(-0.9670074 0.3643596 0)
(-0.9726608 0.2704446 5.103352e-22)
(-0.9696226 0.1904784 -4.016663e-22)
(-0.9587014 0.1222022 -2.565321e-25)
(-0.9405004 0.06377994 7.947176e-23)
(-0.9155192 0.01396499 1.767167e-23)
(-0.8836798 -0.02638171 -4.094091e-23)
(-0.8517258 -0.05581537 -4.628843e-23)
(-0.8187749 -0.07706018 -1.68911e-22)
(-0.787487 -0.09365206 7.800875e-23)
(-0.7596108 -0.1086647 2.24904e-22)
(-0.7362076 -0.1256643 -4.688698e-22)
(-0.7179132 -0.1485611 -5.020179e-22)
(-0.7052118 -0.1819251 -5.641184e-22)
(-0.6987032 -0.2315977 5.106497e-22)
(-0.6992438 -0.3057824 1.691236e-21)
(-0.7077454 -0.4168645 7.170835e-21)
(-0.7220555 -0.5840875 -3.025774e-21)
(-0.7345893 -0.8310772 -5.008559e-23)
(-0.7197917 -1.178736 4.770983e-21)
(-0.6595251 -1.620284 0)
(-0.5087138 -2.108612 1.067398e-20)
(-0.3284407 -2.552482 -1.534981e-22)
(-0.1006812 -2.953466 -4.53583e-23)
(-0.07961101 2.259381 1.336025e-21)
(-0.1623485 2.075583 -2.04782e-21)
(-0.3022087 1.856512 -2.613429e-21)
(-0.397569 1.625894 -5.768961e-24)
(-0.4931642 1.398909 -1.03995e-20)
(-0.5655261 1.182122 3.30319e-21)
(-0.6240214 0.9800546 -7.555426e-21)
(-0.6660778 0.7969205 -2.762723e-21)
(-0.6952437 0.6349083 3.908586e-21)
(-0.7132577 0.4944 2.236662e-21)
(-0.7220477 0.3740004 -1.468306e-21)
(-0.7228565 0.2712749 -4.254396e-22)
(-0.7163683 0.1833482 5.01686e-22)
(-0.7027515 0.1075493 -7.222369e-23)
(-0.6819426 0.04178491 -4.977135e-23)
(-0.6521103 -0.01458672 -5.458142e-23)
(-0.6180426 -0.0586797 -2.669961e-24)
(-0.5800139 -0.09001334 -5.434181e-23)
(-0.5405603 -0.1113169 4.62285e-23)
(-0.5030294 -0.1255999 3.356115e-22)
(-0.4696779 -0.1368048 2.632568e-22)
(-0.4416465 -0.149226 4.443208e-22)
(-0.4194291 -0.1671306 4.53975e-22)
(-0.4034051 -0.1950638 2.4925e-22)
(-0.3943461 -0.238503 0)
(-0.3938292 -0.3052239 0)
(-0.4050323 -0.4080726 1.609433e-21)
(-0.4292098 -0.5703451 2.391827e-21)
(-0.4654367 -0.8238487 -2.827992e-21)
(-0.4856116 -1.202223 1.999372e-21)
(-0.474408 -1.700428 2.224343e-21)
(-0.3675209 -2.248566 3.921826e-21)
(-0.2536404 -2.732219 -2.004577e-21)
(-0.06876191 -3.15307 0)
(-0.05756412 2.365237 0)
(-0.1122186 2.176847 -1.685318e-21)
(-0.2157791 1.951154 -3.073846e-21)
(-0.2817064 1.709697 0)
(-0.3518775 1.470603 -4.805453e-21)
(-0.4030881 1.240705 -6.038903e-22)
(-0.445062 1.025691 -2.163965e-21)
(-0.4742703 0.8304243 -1.51575e-21)
(-0.4935732 0.6574338 1.245886e-21)
(-0.5042626 0.5074965 0)
(-0.5079482 0.3790363 4.06866e-22)
(-0.5053545 0.2691028 -5.68977e-22)
(-0.4966849 0.1742483 -8.870863e-24)
(-0.481708 0.09127409 0)
(-0.4594158 0.01745826 -6.077553e-27)
(-0.4268523 -0.04601348 3.576259e-23)
(-0.3892501 -0.09516537 5.074833e-23)
(-0.3462927 -0.1296407 2.85285e-24)
(-0.3024691 -0.1506985 0)
(-0.2619571 -0.1618194 -3.505239e-24)
(-0.2272183 -0.168256 8.417659e-24)
(-0.199054 -0.1753703 -2.228912e-22)
(-0.1774695 -0.1878583 -2.199958e-22)
(-0.1623779 -0.210201 4.513428e-22)
(-0.1542352 -0.2473036 9.795813e-22)
(-0.154258 -0.3057876 -5.682589e-22)
(-0.1658731 -0.3970954 -1.467652e-21)
(-0.1910407 -0.5455811 3.269001e-21)
(-0.2385814 -0.7921747 1.318017e-21)
(-0.2799617 -1.188568 2.318899e-24)
(-0.3077975 -1.736825 -1.994784e-21)
(-0.2375802 -2.338714 2.45412e-21)
(-0.1855876 -2.857683 -1.231489e-21)
(-0.03927669 -3.299318 0)
(-0.03864344 2.43587 0)
(-0.06750191 2.245743 6.07986e-22)
(-0.138424 2.015976 -2.462877e-22)
(-0.1777092 1.767322 -3.10394e-22)
(-0.2246027 1.519979 0)
(-0.2564347 1.280886 -1.506247e-21)
(-0.283274 1.05662 0)
(-0.3007471 0.8525561 -1.065287e-21)
(-0.3113666 0.6716153 1.924474e-21)
(-0.3152797 0.5145263 5.322288e-22)
(-0.313748 0.379728 2.657378e-22)
(-0.3070793 0.2638845 1.04468e-22)
(-0.295033 0.1629766 0)
(-0.2773135 0.07314046 -4.473364e-23)
(-0.2501722 -0.008971532 4.907927e-23)
(-0.2147776 -0.08009812 0)
(-0.1719693 -0.1351821 0)
(-0.1243046 -0.1727118 3.59712e-25)
(-0.07776232 -0.1921968 -1.600108e-24)
(-0.03763653 -0.1981501 1.574961e-26)
(-0.005918508 -0.1979207 -1.666709e-23)
(0.01752271 -0.1983387 -1.199093e-22)
(0.03335188 -0.2045752 -1.134954e-22)
(0.04219623 -0.2209096 6.223442e-25)
(0.04375235 -0.2516118 -2.740632e-23)
(0.0373569 -0.3021623 -5.459509e-22)
(0.02092056 -0.3820486 -6.632012e-22)
(-0.005695581 -0.5152525 -1.086614e-22)
(-0.05735381 -0.7480487 0)
(-0.1054978 -1.150893 -1.512757e-21)
(-0.1579284 -1.73912 -8.910828e-22)
(-0.1171326 -2.38488 -3.935839e-22)
(-0.1220516 -2.933399 0)
(-0.01111983 -3.396102 0)
(-0.02208463 2.475011 1.10949e-22)
(-0.02717138 2.285163 4.182593e-22)
(-0.06842168 2.05348 -5.543918e-23)
(-0.08315942 1.800736 -1.024993e-21)
(-0.1082808 1.548562 -1.140345e-21)
(-0.1217571 1.303847 -3.305726e-22)
(-0.1340778 1.07377 0)
(-0.1400716 0.8639263 3.324096e-22)
(-0.1419518 0.6775011 8.674668e-22)
(-0.1389019 0.5152398 4.487926e-22)
(-0.1312842 0.3753261 -1.729252e-22)
(-0.1189689 0.2543064 -4.12606e-23)
(-0.1013106 0.1477122 1.773374e-23)
(-0.07783528 0.05045279 -1.431158e-23)
(-0.04182663 -0.04044034 0)
(0.0006770879 -0.1202382 0)
(0.05101569 -0.1813486 -1.314548e-24)
(0.1041456 -0.2194068 -6.406538e-24)
(0.1523434 -0.2333202 -1.404324e-23)
(0.1889842 -0.2303984 -2.279884e-23)
(0.2131874 -0.2212181 -5.575657e-23)
(0.2270876 -0.2138046 4.509858e-24)
(0.2326602 -0.2131259 3.956121e-23)
(0.2307619 -0.2228914 -1.271885e-22)
(0.2211618 -0.2467717 -2.72636e-22)
(0.2031749 -0.289783 -1.28642e-22)
(0.1753732 -0.3612773 4.622012e-22)
(0.1394356 -0.482021 4.081637e-22)
(0.0837664 -0.6991297 -5.485068e-22)
(0.03975356 -1.099312 3.974668e-23)
(-0.0198617 -1.716386 -4.825774e-22)
(-0.002638691 -2.393072 0)
(-0.05949237 -2.963671 0)
(0.01738655 -3.445879 -5.227294e-23)
(-0.007310991 2.486021 5.321817e-23)
(0.009413802 2.298145 6.677494e-23)
(-0.004238339 2.066281 -4.554242e-23)
(0.004171675 1.811935 -1.377146e-22)
(1.339339e-05 1.55769 -2.904234e-22)
(0.004540017 1.310268 -3.261212e-22)
(0.006795188 1.077258 -3.213472e-22)
(0.01258599 0.8641098 -1.224465e-22)
(0.02001813 0.6740861 1.103432e-22)
(0.030867 0.5078403 -1.268766e-22)
(0.04567197 0.3634338 -7.592629e-23)
(0.06555115 0.2372785 -1.655361e-22)
(0.09127018 0.1247012 -4.165383e-23)
(0.12492 0.01833713 8.932276e-23)
(0.1724964 -0.0820577 -1.020608e-22)
(0.2251803 -0.167602 -2.372841e-23)
(0.2848591 -0.232544 4.204509e-23)
(0.3461548 -0.2689686 3.75951e-23)
(0.397236 -0.2730095 3.319954e-23)
(0.4289723 -0.2564087 4.902802e-27)
(0.4422918 -0.2349182 -1.202843e-22)
(0.4425609 -0.2180314 -1.07308e-22)
(0.4337937 -0.209663 3.9099e-23)
(0.4175568 -0.2122391 0)
(0.3936884 -0.2284158 0)
(0.3611903 -0.2627922 0)
(0.3184801 -0.3252266 8.304853e-23)
(0.2677896 -0.4377179 -1.207443e-22)
(0.2043737 -0.652744 -2.523992e-22)
(0.1659211 -1.061224 5.050653e-23)
(0.1122414 -1.682557 1.018482e-21)
(0.1102245 -2.365054 -5.968831e-23)
(0.007939798 -2.94867 4.892066e-24)
(0.04825696 -3.446822 -1.671929e-22)
(0.006196904 2.470872 5.720965e-24)
(0.04272677 2.285506 5.814959e-23)
(0.0557352 2.054523 1.182555e-22)
(0.08570207 1.800765 0)
(0.1026586 1.546965 0)
(0.1248535 1.299745 0)
(0.1423633 1.066854 -8.143734e-23)
(0.1604778 0.8531591 -9.100566e-23)
(0.1780771 0.6616659 9.766831e-23)
(0.1975466 0.4926389 -4.065939e-22)
(0.2205259 0.3440325 -6.472411e-22)
(0.2492565 0.2122897 -2.023149e-22)
(0.2842826 0.09194601 -1.932128e-22)
(0.3334133 -0.02449144 -3.576903e-22)
(0.3900325 -0.1332384 -4.717322e-22)
(0.4559601 -0.2260168 7.508133e-23)
(0.530099 -0.2950236 -3.6722e-23)
(0.6057994 -0.3263285 1.251173e-23)
(0.6630353 -0.3122828 -4.69117e-24)
(0.6880491 -0.2737019 -2.758065e-26)
(0.6859592 -0.2353 1.0416e-22)
(0.6681629 -0.2077379 1.215448e-23)
(0.6416795 -0.1919536 0)
(0.6086531 -0.1878519 0)
(0.5687162 -0.1964449 5.07823e-22)
(0.520464 -0.2218518 8.913897e-22)
(0.4624699 -0.2749713 4.650398e-22)
(0.3975825 -0.3808262 -2.677397e-22)
(0.3293223 -0.5999115 -3.281753e-22)
(0.299462 -1.022774 0)
(0.2533967 -1.643804 2.02522e-22)
(0.2342728 -2.311877 -1.087821e-21)
(0.08637664 -2.890204 -2.560778e-23)
(0.08489409 -3.393988 -1.241434e-23)
(0.01865794 2.432144 0)
(0.07367755 2.249598 -1.194989e-22)
(0.1121453 2.020245 -5.349939e-22)
(0.1625342 1.768488 2.208554e-22)
(0.2005203 1.516904 1.062736e-21)
(0.2402986 1.272023 0)
(0.273618 1.041526 0)
(0.3047048 0.8294715 -1.101086e-21)
(0.3332311 0.6382734 -2.666214e-26)
(0.3619118 0.4676403 8.786973e-22)
(0.3934283 0.3153756 -1.649175e-22)
(0.4305241 0.1777165 0)
(0.4752235 0.04760017 6.400666e-22)
(0.5359608 -0.07970676 -1.135767e-21)
(0.605033 -0.1976665 -4.559727e-22)
(0.6866356 -0.2997531 -3.194446e-22)
(0.7808186 -0.3743329 -7.932911e-23)
(0.8795342 -0.3964178 -1.400932e-23)
(0.9476089 -0.3513905 3.174579e-23)
(0.9625681 -0.2781242 2.327071e-22)
(0.9384477 -0.2165757 -1.843403e-22)
(0.8978059 -0.176676 0)
(0.8518614 -0.1531419 -5.282038e-22)
(0.8022685 -0.1425323 -5.280804e-22)
(0.7474152 -0.1441101 5.675863e-22)
(0.684991 -0.1614753 7.328871e-22)
(0.6139968 -0.2077754 8.127962e-23)
(0.5403818 -0.3145382 0)
(0.4818014 -0.5518088 1.347028e-22)
(0.4740925 -0.9937522 -1.365119e-21)
(0.4355287 -1.596855 -4.019791e-21)
(0.3913939 -2.226376 -1.481372e-21)
(0.1868905 -2.779676 -1.652785e-21)
(0.1332963 -3.27632 9.864961e-22)
(0.03033562 2.371248 -4.449236e-23)
(0.1028437 2.19155 0)
(0.1655556 1.96427 3.739817e-22)
(0.2356606 1.715491 -1.310691e-21)
(0.2945231 1.467503 -1.046322e-21)
(0.3520087 1.226916 0)
(0.4015119 1.00098 -2.284965e-21)
(0.4460364 0.7928207 -2.182377e-21)
(0.4858844 0.6039485 -1.961806e-21)
(0.5240306 0.4334914 -1.231684e-21)
(0.5638207 0.2785239 -6.740002e-22)
(0.6079877 0.1346284 -1.365551e-21)
(0.6636911 -0.006319832 -8.55466e-22)
(0.7304138 -0.1449673 7.416213e-22)
(0.8099561 -0.2755273 0)
(0.9069244 -0.3920631 -1.191101e-21)
(1.025917 -0.4780493 2.459346e-22)
(1.159307 -0.4871276 3.127135e-22)
(1.245028 -0.3899227 1.119228e-22)
(1.243596 -0.2637287 1.004936e-21)
(1.187883 -0.1776546 -1.308676e-24)
(1.12026 -0.134717 -3.50581e-22)
(1.055117 -0.112734 0)
(0.9911177 -0.1003994 -6.181003e-22)
(0.9247656 -0.09626593 -6.599279e-22)
(0.8530772 -0.1055759 6.381926e-23)
(0.7776678 -0.1468388 2.25219e-21)
(0.7179566 -0.263408 5.313997e-21)
(0.705569 -0.5312476 5.563833e-21)
(0.7348131 -0.9796897 3.651985e-21)
(0.6964686 -1.535339 -3.361245e-21)
(0.6095652 -2.095662 0)
(0.3271761 -2.599382 -2.403957e-21)
(0.2019003 -3.070868 1.480689e-21)
(0.04152806 2.289316 -6.551118e-23)
(0.13065 2.112454 1.912026e-22)
(0.2164124 1.887309 8.652744e-22)
(0.30591 1.641985 0)
(0.3856072 1.398579 -2.130647e-21)
(0.4611343 1.164083 -2.313545e-21)
(0.527039 0.9448229 -4.390284e-21)
(0.5851776 0.742911 2.21844e-21)
(0.6363375 0.5589154 3.987465e-21)
(0.6832994 0.3906853 1.171207e-21)
(0.7296205 0.2344345 -1.320655e-22)
(0.7784612 0.08441296 -1.592261e-21)
(0.8388486 -0.06628084 -2.511555e-21)
(0.9075748 -0.2167237 1.630314e-21)
(0.9926004 -0.3645777 -4.003624e-23)
(1.101646 -0.5048007 -9.786169e-22)
(1.247359 -0.6167448 2.38673e-22)
(1.431034 -0.6155371 1.036232e-21)
(1.547229 -0.4310351 -2.485209e-22)
(1.511719 -0.2158197 1.48076e-21)
(1.398168 -0.09355747 1.502368e-21)
(1.295247 -0.03812956 3.362059e-22)
(1.22139 -0.01309174 -2.557617e-21)
(1.159693 -0.004609594 -3.480501e-25)
(1.096728 -0.001592508 6.98427e-22)
(1.032808 -0.01006395 -1.806379e-21)
(0.9944232 -0.06805277 -2.735559e-21)
(1.017615 -0.235732 4.463016e-21)
(1.094107 -0.5474848 6.847675e-21)
(1.150047 -0.9692605 -4.515364e-21)
(1.085329 -1.437314 -5.436509e-21)
(0.9218847 -1.89281 1.072667e-20)
(0.5280671 -2.318254 0)
(0.300476 -2.738259 0)
(0.05265193 2.187262 0)
(0.1575214 2.013429 0)
(0.2649682 1.789845 0)
(0.3738398 1.547778 -2.721e-21)
(0.4746341 1.309601 5.427334e-21)
(0.5688055 1.083037 -4.863808e-21)
(0.6513227 0.8728678 -1.247501e-20)
(0.7232063 0.6803246 4.928681e-21)
(0.7851296 0.504224 -3.296511e-22)
(0.8395044 0.3411923 -1.179965e-21)
(0.8895283 0.1866033 -8.358991e-22)
(0.9392464 0.03296647 -1.766718e-21)
(0.9960116 -0.125455 -1.44862e-22)
(1.059318 -0.2884587 -1.019437e-22)
(1.139289 -0.4580884 3.947055e-21)
(1.249375 -0.6334904 2.920297e-21)
(1.409551 -0.7960573 -1.546597e-08)
(1.661613 -0.7691975 2.7929e-08)
(1.858903 -0.4437488 1.258216e-07)
(1.78309 -0.1071914 1.174867e-07)
(1.594022 -0.005095398 -6.576893e-08)
(1.441123 -0.0403944 -7.9529e-08)
(1.341906 -0.03694934 1.857117e-21)
(1.285553 -0.01456344 9.512252e-22)
(1.262844 -0.007143106 1.2426e-22)
(1.317578 -0.04835922 3.330923e-22)
(1.451806 -0.1656979 0)
(1.625212 -0.3655583 0)
(1.763046 -0.635346 0)
(1.790515 -0.9470306 2.468407e-20)
(1.647735 -1.269962 1.253859e-20)
(1.358529 -1.577389 -1.175105e-20)
(0.8120575 -1.886172 8.525379e-22)
(0.4415926 -2.212017 5.410757e-22)
(0.06433502 2.065565 3.373141e-21)
(0.1838912 1.895943 0)
(0.3111175 1.672367 1.601938e-21)
(0.4396551 1.432376 7.043298e-22)
(0.5623955 1.199499 1.123973e-20)
(0.6762199 0.9828805 -5.231169e-21)
(0.7758983 0.7849361 4.771476e-22)
(0.8616996 0.6051154 2.803742e-23)
(0.9336747 0.4404792 -2.564618e-21)
(0.9938739 0.2864612 0)
(1.044504 0.1372257 3.201266e-22)
(1.091716 -0.0156238 -2.641256e-25)
(1.134666 -0.1760764 -2.764761e-21)
(1.180384 -0.3496267 -1.805283e-22)
(1.238178 -0.5439091 1.069851e-20)
(1.326398 -0.769356 -4.019513e-23)
(1.479278 -1.028497 -5.125751e-08)
(1.68339 -1.052944 -8.959886e-09)
(2.134335 -0.7001521 6.12948e-09)
(2.117496 -0.08164493 -3.782952e-09)
(1.653481 0.2034133 -1.321785e-08)
(1.234751 0.3954842 -5.264814e-08)
(1.492629 0.2046453 -3.812153e-21)
(1.77647 0.08800698 -2.668112e-22)
(2.066056 -0.0201578 -1.325833e-22)
(2.350921 -0.1507955 1.008857e-21)
(2.595085 -0.2944781 0)
(2.759565 -0.452175 0)
(2.805026 -0.6225854 1.456709e-20)
(2.697012 -0.7931846 3.127388e-20)
(2.40035 -0.9500222 1.357891e-20)
(1.93314 -1.083851 -1.624512e-20)
(1.203854 -1.237065 2.183113e-20)
(0.6414719 -1.422852 0)
(0.07814629 1.926671 3.91927e-21)
(0.2108115 1.761027 0)
(0.3541584 1.533849 1.880654e-21)
(0.5025323 1.2929 0)
(0.6485114 1.065565 0)
(0.7836723 0.863192 1.339533e-20)
(0.9018246 0.6816215 6.129946e-21)
(1.002189 0.5190989 -5.550081e-21)
(1.083704 0.3708102 0)
(1.14773 0.2311039 9.217939e-22)
(1.195778 0.09315397 9.818732e-22)
(1.231285 -0.05029119 1.372189e-21)
(1.25267 -0.2049176 -2.837291e-21)
(1.2647 -0.3802788 1.089347e-23)
(1.271944 -0.5902966 7.583554e-21)
(1.287037 -0.858102 -3.024094e-20)
(1.324404 -1.220453 1.562742e-08)
(1.548624 -1.512794 -3.23619e-08)
(2.348989 -1.342662 1.333347e-07)
(2.321112 0.2787256 1.644716e-08)
(0.9834378 0.9280238 3.26936e-07)
(3.667649 -0.5992817 -5.197891e-08)
(3.83362 -0.6613999 -1.871952e-20)
(4.059881 -0.6555335 -1.442393e-21)
(4.218579 -0.6238163 1.661018e-21)
(4.302891 -0.5913159 1.851495e-21)
(4.308221 -0.5628662 -2.748272e-21)
(4.215821 -0.5445832 -4.317083e-21)
(4.005225 -0.5364431 -2.756799e-21)
(3.66115 -0.5310952 2.123832e-20)
(3.165623 -0.5195414 1.879508e-20)
(2.526221 -0.4956719 0)
(1.652084 -0.4788202 -2.197052e-21)
(0.9140343 -0.4137391 -2.71529e-21)
(0.08714832 1.763196 1.024659e-09)
(0.2327465 1.616425 2.601217e-09)
(0.3905803 1.37865 -8.028929e-21)
(0.5593025 1.130806 -8.986249e-21)
(0.7323178 0.9067963 -1.204317e-20)
(0.8927593 0.7194608 1.489523e-20)
(1.031214 0.5572703 0)
(1.147278 0.417435 -1.116498e-20)
(1.238184 0.2914326 5.05139e-21)
(1.304791 0.172616 -1.449483e-21)
(1.347871 0.05428295 6.165579e-22)
(1.367936 -0.0694648 0)
(1.362663 -0.204667 0)
(1.331316 -0.3612649 1.252193e-22)
(1.267621 -0.5528059 1.354557e-22)
(1.159929 -0.8013092 -2.417047e-20)
(0.9730645 -1.143166 9.888862e-08)
(0.8172612 -1.570072 -1.531642e-08)
(0.3494611 -2.093368 2.849793e-09)
(9.79922 -0.4695062 -6.680402e-07)
(6.89927 -0.4363116 2.083994e-08)
(6.531675 -0.3933692 5.269694e-21)
(6.27507 -0.349313 -3.23274e-22)
(5.951521 -0.3029305 -1.337816e-21)
(5.595341 -0.2546957 6.820731e-22)
(5.22389 -0.20612 2.240464e-21)
(4.812672 -0.1505452 3.842244e-21)
(4.320822 -0.08138623 3.834146e-21)
(3.729019 0.004561985 -2.733161e-20)
(3.016429 0.1280882 -8.51332e-21)
(2.200582 0.3188037 0)
(1.267268 0.598998 1.546958e-20)
(0.6575793 0.9615121 3.539103e-20)
(0.07764751 1.636718 3.050176e-07)
(0.2632847 1.427594 6.765232e-10)
(0.4052063 1.182511 1.274878e-08)
(0.5914711 0.9255027 2.556703e-08)
(0.7999254 0.7106864 1.576796e-07)
(0.9973593 0.5607407 1.446805e-07)
(1.164455 0.4242144 -1.201012e-20)
(1.300754 0.313284 -1.347934e-20)
(1.402043 0.2159419 5.738066e-21)
(1.471291 0.1247908 -9.687808e-22)
(1.509708 0.03404897 -5.099825e-22)
(1.516221 -0.06145697 2.219356e-22)
(1.487714 -0.1668048 1.401549e-21)
(1.420565 -0.2884305 0)
(1.305156 -0.4336909 3.72516e-21)
(1.128634 -0.6098698 -1.742179e-22)
(0.8433379 -0.8178448 2.414334e-07)
(0.5223526 -1.003371 5.27226e-08)
(0.1941462 -0.6572077 -6.099685e-09)
(1.1783 -0.9360225 -4.110572e-09)
(0.3597568 -1.178952 1.091544e-09)
(0.05650035 -1.016812 1.601867e-07)
(0.4224709 -0.2912382 4.731846e-22)
(0.5878988 -0.1148966 -1.415634e-20)
(0.639864 -0.03045208 5.385351e-21)
(0.6428052 0.03177357 1.339485e-21)
(0.6159342 0.1015413 1.086218e-22)
(0.5575153 0.1967994 -1.984108e-20)
(0.5071774 0.3135021 -2.869712e-20)
(0.4219549 0.4441122 -7.702448e-21)
(0.2939542 0.5839815 0)
(0.1715759 0.7580298 -6.828556e-20)
(-0.04442775 0.9978679 0)
(0.1256511 1.411873 7.116359e-21)
(0.07510749 1.428258 -7.804983e-09)
(0.2434463 1.33782 -2.366724e-08)
(0.3812361 1.105377 -2.625667e-08)
(0.544656 0.8281924 -2.502141e-08)
(0.7830981 0.5693258 -7.285025e-10)
(1.149868 0.3134907 3.335311e-07)
(1.321502 0.2353957 -1.637776e-20)
(1.472924 0.1713953 -2.413823e-21)
(1.581709 0.1134374 -2.059415e-22)
(1.651794 0.05896101 3.976207e-22)
(1.68523 0.00470997 -5.741774e-22)
(1.680097 -0.05182243 1.852752e-22)
(1.633207 -0.1139986 8.251026e-22)
(1.539476 -0.1862325 -4.867285e-22)
(1.388759 -0.2732124 2.014742e-21)
(1.173153 -0.3783308 -1.608037e-21)
(0.8621016 -0.4981052 1.235817e-07)
(0.5067834 -0.6139536 1.756038e-07)
(0.2233043 -0.6878752 1.234179e-07)
(-0.1816084 -0.8365549 1.510786e-07)
(-0.7290964 -0.8590914 3.256121e-07)
(-1.118477 -0.4825646 5.082366e-08)
(-1.285026 -0.2921706 6.059556e-22)
(-1.345661 -0.2051739 1.042852e-22)
(-1.38612 -0.1418413 0)
(-1.418646 -0.08359793 9.943428e-23)
(-1.444573 -0.02456822 -5.760243e-21)
(-1.43956 0.04164428 -6.6947e-21)
(-1.40701 0.1269913 0)
(-1.333762 0.2368808 0)
(-1.217778 0.3645391 -6.374785e-20)
(-1.035341 0.5281229 -8.976013e-21)
(-0.8357918 0.731922 6.887899e-20)
(-0.3534839 0.926957 5.567591e-20)
(0.06364698 1.300132 9.485907e-08)
(0.2096405 1.221459 -5.536474e-08)
(0.3376828 1.007024 -6.008952e-08)
(0.4414484 0.7131153 -1.077458e-07)
(0.8515049 0.2218747 -3.961336e-08)
(1.327909 0.1478428 3.555524e-08)
(1.52724 0.1084208 0)
(1.683812 0.08050333 -2.422605e-21)
(1.792209 0.05564121 -1.482868e-21)
(1.859978 0.03334759 -1.459579e-22)
(1.888382 0.011899 1.299713e-22)
(1.874461 -0.0105357 5.449034e-24)
(1.815789 -0.03513689 1.102779e-22)
(1.706683 -0.06375461 8.965e-23)
(1.535897 -0.09941626 0)
(1.292494 -0.1470394 -4.050288e-22)
(0.9368376 -0.2147985 1.160035e-21)
(0.5450765 -0.3200615 -1.571407e-22)
(-0.1937238 -0.4063923 1.67015e-22)
(-0.9043785 -0.3971847 0)
(-1.623505 -0.3329621 -5.132099e-23)
(-2.169864 -0.2379902 -2.045781e-21)
(-2.487745 -0.1188273 5.835178e-22)
(-2.671966 -0.04929478 1.657716e-22)
(-2.78166 -0.004846465 2.807194e-22)
(-2.834639 0.02889988 4.873596e-22)
(-2.838388 0.05768427 1.305008e-21)
(-2.792975 0.0863314 1.925049e-21)
(-2.693171 0.1210261 0)
(-2.522008 0.1647998 0)
(-2.265129 0.2210674 0)
(-1.908219 0.3040604 1.633045e-20)
(-1.532528 0.4208231 0)
(-0.7828606 0.6530543 0)
(2.22721 -0.3544954 1.641608e-09)
(2.270626 -1.10077 -4.484297e-08)
(2.463004 -0.1098428 -1.325609e-08)
(2.134397 -0.7000856 -2.441263e-09)
(2.227262 -0.3543859 -1.09021e-08)
(2.270932 -1.100602 3.843144e-08)
(2.463343 -0.1093553 9.949452e-09)
(2.059624 -1.584567 -1.001018e-07)
(1.260809 -1.652423 -1.446276e-08)
(0.7278589 -2.085443 2.178914e-08)
(1.548698 -1.512791 -3.329764e-08)
(2.060034 -1.584509 9.408777e-08)
(1.260906 -1.652416 -3.349647e-08)
(0.7275552 -2.08544 -2.157351e-08)
(2.457983 0.08924855 -6.36306e-09)
(0.462897 -2.176827 1.993861e-09)
(2.34955 -1.342458 -1.344665e-07)
(2.458553 0.08979826 6.937339e-09)
(0.4621054 -2.177445 -1.95516e-09)
(1.353608 0.8235417 4.398872e-08)
(5.32151 -1.097502 -2.943588e-07)
(2.321599 0.279319 -1.580684e-08)
(1.353602 0.8237854 -3.434094e-08)
(5.329233 -1.101918 1.078605e-07)
(0.4280027 -1.961823 -2.263186e-10)
(0.6177105 -1.304905 2.680622e-08)
(0.09586886 -0.8096132 7.739208e-09)
(0.8173874 -1.570077 -4.559101e-08)
(0.4288167 -1.961683 2.169858e-10)
(0.6177953 -1.304923 -5.719628e-09)
(0.09579271 -0.8102814 -7.787267e-09)
(0.1135829 -0.6166408 -6.103862e-09)
(1.362722 -0.7463818 -8.691483e-10)
(0.3500291 -2.09319 -2.875922e-09)
(0.1133499 -0.6177491 6.366619e-09)
(1.362362 -0.7469872 8.882254e-10)
(13.42198 -0.3760008 2.633214e-07)
(1.369939 -0.886045 -1.868361e-10)
(0.9768819 -1.405754 -1.867673e-06)
(13.42103 -0.3767424 -3.782241e-07)
(1.369614 -0.8865026 2.149159e-10)
(0.9763665 -1.405993 1.872369e-06)
(1.158503 -0.7357936 -2.27543e-09)
(0.3026689 -0.7662108 -3.178311e-08)
(0.433985 -0.8224501 -2.199343e-08)
(0.193864 -0.6581866 4.218276e-09)
(1.157858 -0.7366841 2.9518e-09)
(0.3023297 -0.7664917 -5.250607e-08)
(0.4336899 -0.822715 -4.769897e-08)
(0.1628787 1.356697 -5.388106e-09)
(0.06310032 1.271896 3.551484e-08)
(0.1636054 1.35378 -1.108152e-07)
(0.2963003 1.135432 4.58958e-08)
(0.2099816 1.221109 -3.239809e-08)
(0.2964472 1.136138 -1.005584e-07)
(0.4143259 0.848295 4.692197e-08)
(0.337789 1.00792 1.462875e-08)
(0.4143924 0.8492991 -8.218722e-08)
(0.5090087 0.3431756 4.33199e-09)
(0.4415147 0.7141501 7.326993e-08)
(0.5084586 0.3438225 -1.805437e-08)
(2.869163 -0.9630908 4.382268e-10)
(2.346463 -1.33843 1.298695e-07)
(2.597655 -0.8556672 -8.802335e-09)
(2.164568 -1.784262 5.409732e-08)
(2.590476 -0.8494515 -7.282762e-09)
(2.156688 -1.770061 2.199613e-08)
(2.908306 -0.9820238 4.073024e-09)